(written by ASE)

1810 atoms
2 atom types

0.0      27.344798000000001  xlo xhi
0.0      27.344798000000001  ylo yhi
0.0      49.225544188699999  zlo zhi

Atoms # atomic

     1   1      14.619408801000002      7.7857733529999988      8.9800559539000009
     2   1      11.402307046899999            3.9367072772      9.7171881462999998
     3   1           13.5996556596      25.626598421800004      3.9739753325999998
     4   1      4.9384103464000004      10.185131544300001      2.3765040327999998
     5   1      12.556684174000001     0.98735809429999999      11.934272769100001
     6   1      27.041348210000002      19.996542993400002      17.311958855500002
     7   1           12.0999519186      5.7394333090999998      5.8618352833999996
     8   1      14.743190910400003      4.7471331055999988      10.813933898599998
     9   1      10.188688037199999      14.550315387200003      11.579621626200002
    10   1      16.149842468500005      15.383890981800002      5.0024787612999999
    11   1      20.295401223700001      3.4413915276000004      15.175141360500003
    12   1      7.9029752453000004      23.804522668000004      18.473849554000001
    13   1           16.1459113288           10.7072409846      19.400761978600002
    14   1      12.337114627899998      13.640636712299999      2.0587597036999998
    15   1      17.579458136100005      6.2097541176000002      6.9676800924000002
    16   1      21.439888289400002      15.745561503000001      3.0846802197999996
    17   1      15.719793474900003     0.11389672219999999           13.8800723848
    18   1      2.7554592231999995      4.6186955610999991      6.8294059561999996
    19   1      7.9463144398999992      9.7569493474000009      16.348517896600001
    20   1      26.609592089600003      18.118919566900001      4.0753349291000003
    21   1      6.3022457742000002      27.028787380300002      1.1608977252999999
    22   1      4.2161093826999991      4.8952593021000004           10.1087225168
    23   1      13.818913795500002      14.939629875600003      16.256906334300005
    24   1      17.931447989600002      1.8136304525000002      3.3751813797999994
    25   1      2.6701688934000001      19.898964891600002           14.6367157272
    26   1      21.650582761100001      13.938366805600001             1.600577038
    27   1      9.3523269787000007      4.1324065389999998           12.7598615951
    28   1      2.8032496130000002      13.540609504700001           17.0106249261
    29   1      24.251105760900003      27.124730207600003      6.9063523155999995
    30   1      18.687926059600002      18.117564483400002      7.1788361157999994
    31   1      23.993390877300005      13.673315750900002      9.5327245669000007
    32   1      6.8032229919000002           21.4582514483      6.2686555520000002
    33   1      2.3447813908000001           25.3757604326      2.8708409145000005
    34   1           10.2459185879      23.663474387400001      19.189691840000002
    35   1     0.32454344390000001      13.981719396900004      2.5441055049000001
    36   1      3.6850750850999998      15.854138282700003      3.1216251688999996
    37   1           13.4186705905           19.4088783963      14.749910008600004
    38   1      5.5285245329999997      12.070911026399997      8.8497169362999983
    39   1     0.77363633050000002      22.328700835400003             7.721999651
    40   1           12.1058166345      25.049806792800002           18.5694501509
    41   1      17.886827648900002           11.9524954673      4.7886512762999995
    42   1      17.143774935000003           12.4760275801           11.8056686628
    43   1      2.8387305571999999      17.347353905000002           18.2846879704
    44   1           25.7681903575      4.7349542467000001      14.221629723800001
    45   1      6.9055453225999992      24.485665727500002      8.2550010510999989
    46   1      22.691728861200001      20.713873041800003      16.812932188100003
    47   1      4.5814839846000002      22.182995651500004      6.6360037887999992
    48   1           13.6384661849      17.549118930700001       8.323466529400001
    49   1            24.628906938      27.153783797800003            2.5303209596
    50   1      18.838035093200002      26.431875799900002      6.5656817703999995
    51   1      5.8343249833000002      4.7712745490999993      13.178210766800001
    52   1      23.712934699200002      18.887744368400003      15.693963615100003
    53   1      1.6945956969999998      12.852923518900001      14.976012146000004
    54   1      10.048144671799999       6.401071911199999            6.8233241993
    55   1      7.5529269360999995      15.522296520100003      5.3194708159999999
    56   1      12.385283379400001      23.767976235700004           11.4639975737
    57   1      18.526518421900004      14.478778181100004      11.758314483600001
    58   1     0.20901151179999999      24.462716004200004      3.2918939376999998
    59   1      9.0403914041999993           12.3550316244             6.642380051
    60   1      6.3826321357999998      7.6185744955999999      3.4340925338999999
    61   1      12.176574864799999      10.524041567299999            2.5009785642
    62   1      12.647540637000001             18.41949331            20.313905016
    63   1      19.768868001400001      21.437172860000004      20.825455996100004
    64   1           13.0508417083      15.790606236800002      6.7320749346999991
    65   1      20.219821698500002      11.008535199799999           20.1995398454
    66   1      26.393984633600002      4.5443341365999999      5.1910565000000002
    67   1      17.128893146800003      19.541320679400005      10.633825287100001
    68   1           21.2663947273      1.8331552522000001      6.3559458541999998
    69   1           12.7135110642      20.106841986700001      18.596726433699999
    70   1      4.1375033133999999      8.1791399770999984      3.2717514787999997
    71   1      4.1024946161000004      12.394218899599998           12.0800552617
    72   1      20.673127271300004      19.337371526500004           13.3029328399
    73   1           10.3652159732      26.046476321100002      1.7991219459000001
    74   1      6.5588245727999999      17.556124940100002      4.7868493090999999
    75   1            9.3012004328      26.675262586600002      3.9443264713999997
    76   1      19.634968134300003      6.7245852486000004      16.366018768000004
    77   1      1.8900689208999999      5.7683665840999998            3.5905330779
    78   1      22.068618702500004           14.9295575918      10.115644268200001
    79   1      7.5862513086999988      19.201566171600003      6.1537354033999989
    80   1      20.524533088900004      21.500863023800004      14.250777063900001
    81   1      17.411893513800003      14.296466160800001      20.427025629500001
    82   1      12.682754620400001      26.548643573600003      1.9377665960000001
    83   1     0.71576439609999998      3.4295195788999999      6.4605510770999999
    84   1      10.234264903999998      26.890915914200001      9.7392023669000007
    85   1      20.616000287300004      17.460232311400002            1.7218142399
    86   1      6.3395814700999997      15.885262651500005      12.130695597900001
    87   1            5.6014767098     0.42716332259999995      11.073095078900002
    88   1      19.921654750700004      26.188408950200003      4.4655164629000001
    89   1      7.1790178383999992      26.640613869900001      7.4531896233000001
    90   1      26.623544547900003      2.6587724824999999      8.3279769821999992
    91   1      22.975252311200002      26.236054519200003      16.228052319400003
    92   1           10.0812096785      20.078592234600002             1.139409366
    93   1      1.6985300096999998      12.124535935400001      2.1500320444000001
    94   1      19.069356944400003      27.120927600400002      17.226806326200002
    95   1      20.081340133100003      6.2120111178000004      12.783133618100001
    96   1      15.217288017500005      8.2391636121000005      5.1684456899999995
    97   1      21.959420881600003      8.1279413533000007      5.3769352777999995
    98   1      19.559115930200004      13.095201571300001      7.6662347354999998
    99   1      18.481323096200001      4.7619403277999997            1.1022856607
   100   1      24.142878530000004      7.0931473336000002      19.624100796500002
   101   1      25.457890214300004      5.9318117876000001            1.9339184401
   102   1      21.050877142100003      11.265789508999999      8.0365446337999984
   103   1      13.197092380799997      7.3165036451000001      4.4773178630999997
   104   1      2.1161254041999999      2.2927490347999999            3.4943648473
   105   1      14.963606460400003      16.237001952000004      9.7723421054999999
   106   1      19.075072693400003      26.875924122400001      10.135518324600001
   107   1      6.3357033981999997      24.603918430300002            3.9606185447
   108   1      6.7158013547999991      8.5323198991999991      12.769735388200001
   109   1      1.8244938182999999     0.49370680789999993      11.867504631500001
   110   1      24.437403108000002      23.359267494900003      2.1911739481000003
   111   1      19.695418073500004      10.720817482499999      17.858476170199999
   112   1      7.1437348116999999      11.836664918199999      5.2836455027999998
   113   1      13.881029327100002           10.5476958034           11.9440408872
   114   1           13.4492164477      24.499769850200003       7.505946279899999
   115   1      19.676419506100004      3.0764775540999998      2.3045090420000003
   116   1      17.912961583800005      20.865994889700001      19.434247719300004
   117   1      5.4792157916999997      4.6600621528000001      20.422664417100002
   118   1           11.8696934356            9.7283724266      14.938470026599999
   119   1      9.1680070966000002      21.794866865400003      9.6038546183000015
   120   1      2.0796925074999995      4.3779706853000002           13.5568777966
   121   1      22.985647656400005            1.4791880995      7.9040720046999988
   122   1      25.577376196700001      6.7132092816000002      17.808379521500001
   123   1      22.566414008400002      15.682818491800001      20.053960417700001
   124   1      12.552813523099999      27.183272623500002      9.9403098941000003
   125   1      16.097989157700002      24.058221468400003      14.410026053300001
   126   1      21.673584871500001      4.8188269545000004           13.8854335286
   127   1      23.211442602200002      24.833318770200002           18.0606805247
   128   1      27.302451686000005      7.1958958904000001      7.3680163735999988
   129   1      27.181321702400002      4.8185661100999999      3.0229591141999999
   130   1      13.156842896300001      5.9371643523999991              2.64144063
   131   1      4.6057165304999996      15.731384047800002      10.591834554599998
   132   1      20.482641688499999           11.9063874723      14.542248239400003
   133   1      19.800409497200004      25.218180462400003           20.5544963864
   134   1      1.8680483692000001      8.8731267760999994      17.467610991299999
   135   1      24.687481438200003           12.0257453822      1.2024397288999999
   136   1      26.942988949200004      23.575573001300004           10.6858880878
   137   1      23.586198443600004            9.3281537254      19.843951012900003
   138   1      22.977755166700003  0.00096427123506000005      20.767745487300001
   139   1      8.6553936338999993      5.2215307859999998      1.4029552834999999
   140   1      25.009359881900004           10.1968150574      5.6766734796999998
   141   1      3.7970841226999998      20.376155798000006      7.7856157970999993
   142   1            3.1541000516      14.573601191300003      7.7181087043000005
   143   1           23.4398500016            3.4426718769      17.104284583000002
   144   1      16.448931753300002      26.418314761500003      6.3065871056000002
   145   1      5.3632884756000001      22.229644923500004      15.876942415900006
   146   1      25.383039316900003           15.1901761855      8.4145903179000001
   147   1      3.0227629301999999      4.6551891657000004      15.691135438600005
   148   1      1.7454501741999999      15.583105546300002      17.224968493400002
   149   1      17.691267614500003            1.7207722793      16.888035575900002
   150   1      10.105035446600001      17.479050278400003      13.123464651500001
   151   1      9.5592656977000008      19.758126037700002      4.8874854278999997
   152   1      1.5913660809999999            1.4484685861      5.5478202799999998
   153   1      1.1934456896000001      26.371279977300002      13.715968049200001
   154   1      26.909757795800001      24.434057324500003      17.154177487500004
   155   1      9.1745923323999996           10.3154900593      7.8291376763000002
   156   1      27.009772458100002      11.865097282199999      15.599777235000005
   157   1           17.6875345405      12.052691944799998      2.4771639324999999
   158   1           10.3177354434      1.5319987273999998      6.8718004489000002
   159   1      24.495052457900002      25.935389823800001           19.6460464032
   160   1      18.891714460500005           18.3173714341      9.5254657702000003
   161   1      10.156896593999999      12.971600667300001      9.8872555074000008
   162   1      2.3148103366999995      26.908109720100001      9.7650750547000005
   163   1      11.479163760900001      13.357218140300001      13.188572024500001
   164   1           23.5230734121      23.152927087500004      12.199478595099999
   165   1      21.636619283000002     0.39586936820000002      4.5591362035999996
   166   1            3.8809087325      12.152648855300001      2.9139156497999998
   167   1      16.066056881900003      22.365434223299999      19.282374545100001
   168   1      24.732927179700003      20.505866930600003      9.1308990572000006
   169   1      10.137718438599999      23.305363391000004      11.148195215200001
   170   1           20.2405319374      19.709055351900002      2.2471089905000001
   171   1      2.0396901976000001      23.138442813700003      10.681183006199999
   172   1      19.429586992699999      17.958235313000003      20.430857532500003
   173   1            9.5026571595            0.5251558932      17.483390962800005
   174   1      20.411528972100005      21.540761838000002      16.544392665500006
   175   1      22.586576154000003      22.710120109300004     0.89480612960000006
   176   1      18.636349887600005      8.2845983620000005      7.2153525945999997
   177   1           10.3544126827      16.235991103200003      8.6403504052999995
   178   1      9.4715116903999998      21.988095422400004      4.1219184002000002
   179   1      17.886522616600001      9.2654812146999994      13.942388988000001
   180   1            7.2491944171      5.0120619507999997      17.217776373100001
   181   1      6.1630436326999991      27.274082582400002      14.922719203999998
   182   1      9.7300809744999999      8.7163022693999999      15.205181040300001
   183   1      4.7801182076999993      4.4600285609999997      5.5758949444999999
   184   1      16.636433992899999      7.8958069232000003           12.5101037611
   185   1      13.910140640400005      6.1200639099999998      19.868295247700001
   186   1      5.4350620274999999     0.76619030330000004      5.0020714708999998
   187   1      1.0164635845000001      17.155937677300003                   0.875
   188   1      2.9231451044999996      14.352353712800001      11.507447737500001
   189   1      8.9229673672000001           17.7298619311      9.6996772498000006
   190   1      8.6300181908999996      17.727855723900003      20.820320315100002
   191   1      16.386853512300004      17.630581791700003           17.8541268054
   192   1            9.5947126723            4.8366042422      17.116266315400001
   193   1      22.866399057100001      6.2710336507999997      15.280749456500004
   194   1      26.612027731900003      22.784532611100001      20.360811188700001
   195   1      4.9566969703000003            9.0114570426      7.1336004725999986
   196   1             26.87678567      25.011789479100003      5.4726258837000001
   197   1           10.2454043621      6.2804120278999997      12.675397654400001
   198   1      26.648912977300004      4.8988982939000003      20.758362090800002
   199   1      8.6209363709000009      5.2732340434999996      5.2607387060999988
   200   1      7.6107269585000008      3.2729484965000002      2.2879271589000001
   201   1      23.432388810500004            8.4268107769      1.4632594248999999
   202   1      2.1108037891999998      9.3524434881000005      13.350053946700001
   203   1      17.410303332700003      2.4780318724999999      7.5658991714999999
   204   1      4.4757480409000001      19.265756544400002      20.838157631300003
   205   1      6.1427097985000003           19.6893268659           13.0939916556
   206   1     0.51065210719999998            2.0893967054      15.924376606000003
   207   1      19.697836357400003           15.5240580658      4.6090199270000003
   208   1           13.7190141806      7.8048783206000003      18.211502468500001
   209   1      25.742768750200003      18.798402479400004      7.9468904183999998
   210   1           11.6581501569      19.078336184700003      5.7184846141999994
   211   1            6.8834893866           22.6269442595      20.330768396100002
   212   1      8.7527765722000002      11.501773417700001           11.1173944241
   213   1      13.566474009999999      14.487340153600003      10.440502565900001
   214   1      14.222135982799998            20.047452307      2.5924015584999998
   215   1      27.038857097500003      15.399690188000001      18.440444969400001
   216   1      27.311373659200001               10.273759      17.395355865500001
   217   1      14.160866406300002      16.840917913600002      17.577962983600003
   218   1      9.0436006282000001      14.233401324200001      8.2114920779999991
   219   1           13.4510644624      21.928177565300004           12.3668932035
   220   1      9.4759273682000007      26.820685427400001      7.5579196461999993
   221   1      20.341918059400005      15.118168409300003      8.5245514189999998
   222   1      12.314055403299999      22.797995209000003      6.3449924611999995
   223   1      25.233925706900003      8.0126856574000005      2.8463761281000002
   224   1      22.800692667000003      10.621850007300001      1.3351237945000001
   225   1      9.1591363175999998            9.6499621889      20.749116752900004
   226   1      5.0309292908999996     0.89482387479999992            2.7000060518
   227   1            10.979236384      11.950010153299997      17.571980316900003
   228   1      7.0826623487999987      3.5704615811999996      19.111993726399998
   229   1      21.088773520300002      24.164965196600004      18.867930931000004
   230   1      13.664174211300001      9.9433719111999999       6.021361592499999
   231   1           17.4082173975      21.317907723900003      4.4977385889999999
   232   1      6.6008182487999996      24.709995677200002      1.6064154956999999
   233   1      2.6627203641000001      22.329975798800003      12.775078994500001
   234   1      26.588355435800004      16.849896693500003      14.900797021800003
   235   1      7.3430758038999988      4.0029392979000002           11.5976456019
   236   1      3.6613768984999999           10.3315152408      17.814607152499999
   237   1      2.2560271520000001           13.6568759049      5.7587939410999995
   238   1      2.6541813421999998      27.000704672000005      17.764860088900001
   239   1      25.597006023000002      21.220386982200001      1.7677238552999999
   240   1      12.583984364200001            1.5702468747      1.5478269774000002
   241   1           12.6162687071           10.6045649087      20.602555953400003
   242   1           10.5591785051      6.7681519662999987      16.209816381900001
   243   1      19.396055195200002      23.583629992700001      17.324794290400003
   244   1      23.635341774600004      12.196462522199999            5.8619620628
   245   1      16.471493681200002      23.392852541100005      9.2622269078999988
   246   1      8.3474295089999995      22.704620423600002      7.5652495426000002
   247   1      6.3206257430999999      2.7307828626999999      5.9165198062000002
   248   1      2.5132660908000002      12.136768525200001      18.925584791200002
   249   1      3.7392115500999998      11.100973776599998           10.0722133936
   250   1      5.6918288702000002      17.471613080100006      13.776142389699999
   251   1      4.8885167261999989      19.447317315900005      2.5996836061000002
   252   1      23.504282732000004      9.0528159272999975           10.5351572387
   253   1      27.279480978600002      17.068226708700003      20.083702299500004
   254   1      15.969135822400004     0.66179812010000005      7.9953514088999986
   255   1           13.9981853092      10.063466849499999      18.762854392599998
   256   1      15.410819311899999            1.4696501564      17.461462414400003
   257   1      25.717722138500001            1.9204555443      10.578089222700001
   258   1           11.6332134963      14.185364551100003      17.022949815300002
   259   1      14.309962330400003      8.2492180236999992           12.4221598319
   260   1      18.124394220200003      2.6108282575000001      14.749501374700003
   261   1      10.119259854299999            2.6249571044      16.419035362300001
   262   1      12.664519562800001           15.8576287514      2.7879978553999996
   263   1      3.5652386717999995      17.744140097000002      14.887288629400004
   264   1      13.658865342799999      2.2847087910999999           20.8046119039
   265   1      26.022963623600003            1.3193427622      3.5888452936999999
   266   1      22.511550959500003      13.578751264899999      19.077363200800001
   267   1      26.548619320000004      20.197010652700005      13.254680200900001
   268   1      3.6242097164999998      1.1633239255999999      8.5432630971999988
   269   1      8.1628729972999992      7.6757620628999987      19.906436957500002
   270   1      20.617112444100002           11.5049766552      11.526411786800001
   271   1      7.0721259221999988            2.9575660549      8.1638244794999988
   272   1      5.2750072131000003      3.1831078663999999      2.1950272271999998
   273   1      3.9605012518999998      5.5938114823999996           18.8333036796
   274   1      16.095748129900002      16.774603530100002      13.533756489999998
   275   1      9.4853884000999997      1.6296666551000001           10.4613116642
   276   1      18.119003901700005      26.134184826000002      19.230087496100005
   277   1      21.999811947600001      24.539213117000003      8.7875793304999998
   278   1      22.934499569300002     0.21710870709999996           11.9264919237
   279   1      6.8129393789000003      13.058191845000001      18.121416363800002
   280   1      24.719714143900003      2.0590293021999995      18.436869080899999
   281   1      16.576142809000004      17.560159519500001      2.0619116748000001
   282   1      18.631895260700002      15.981543831500003      9.8981429246000001
   283   1      13.745104137199998      23.246070867600004      4.4127951677999997
   284   1      13.008456042500001      10.906102929999998      16.673254529099999
   285   1      13.956619718200001      15.799565439000002           14.0126602994
   286   1      4.5763514926999997      24.173909461600005      7.9967381437000009
   287   1      4.9651431549999998      23.117252889400003     0.97496834980000002
   288   1      13.736748782000003      13.894959848500003      12.713308333300001
   289   1           13.7144622049      18.649782438500004      4.5822400921999993
   290   1      8.8231678687000006      22.659394368200001            13.041961984
   291   1      15.966014496200003      1.0980154955000001            2.3154237837
   292   1      15.650272324500005      22.424008690100003      5.6061535200999986
   293   1      4.8695067230999998      20.613577198600002      17.547529463300002
   294   1      20.386469443800006      16.569622425400002      6.6401238713000001
   295   1      21.844265126500002      22.539718361400002      7.5309272939999996
   296   1      5.1017580882000004      13.175248312900001           16.5189870094
   297   1           23.3118816522      20.839327057900004           12.0693632712
   298   1      20.825788033800002           13.8760989796      11.826587159300001
   299   1      4.0230305380000004      6.7968500223000001      15.523605386600003
   300   1      22.925475877900002      18.973426264300002      13.524861455999998
   301   1      3.9195512717000001      3.8352990419999999      12.212442871199999
   302   1      8.9457142388000008      15.486434126000001      20.049427826700004
   303   1      12.583015885099998     0.25419326599999997      15.598823120300006
   304   1      2.9290630597999998      3.4430445790999995      8.8544134871000004
   305   1      17.327578645100004      25.373496559300005      1.7269482542999999
   306   1      3.4178545105999993      8.2463497505000003      5.5366169789999997
   307   1      25.163282136000003      15.890077788400003      13.208842900800001
   308   1      20.215485903700003            4.3256550824            9.3027379391
   309   1      24.176407689700003      25.304676730800001      8.2988475151999985
   310   1      11.841575994899999      6.0734281237000003      14.364110954399999
   311   1      7.3501905574000004      22.235301878600005           11.0235688676
   312   1      2.3391380073999999      20.128595368400006      20.200976394400005
   313   1      20.783527457200002      14.036875496300002      17.635853968700001
   314   1      7.0926900489999998      24.517907835400003            10.569036207
   315   1      15.326979928100002      6.7100710260999996      7.0205329655000002
   316   1      7.4734810366000008      1.6581499743000001      11.633741374900001
   317   1      9.2599174449999992      18.671410135000002      2.8348364137999997
   318   1           23.7206426479      10.326884595099999      17.753378501100002
   319   1      14.922752560400001            4.5109940516            2.9908339408
   320   1      24.079110202800003      17.621981583500002      11.997483709200001
   321   1      23.401515727100001            1.4710462137           13.8970987942
   322   1      4.7228044279999999             0.806839906           20.8605441887
   323   1           12.5385025675      26.086550292700004      6.0371248688999994
   324   1      17.252665538400006      18.643897167400002      19.835519980400001
   325   1      6.1820822605999997           11.7679054602      19.941457320000001
   326   1      15.626012378400002      5.2667764015999987      16.404418279300003
   327   1           18.7752903887           11.2520389316      13.005621164900001
   328   1      27.130079356000003            0.0359557322      5.2104897064999998
   329   1      3.7620179127000002      17.033842871700003      20.412426173800004
   330   1      20.931091786500001      7.4790634046999998            7.3940001914
   331   1      19.552496503600004      22.445396416400001      4.5858843499999988
   332   1      8.4958906563999985      13.157628689000001            15.036663567
   333   1      13.988409201000003      16.266564995300005      4.6389743159000005
   334   1           23.0282550662      3.6961672586000001      3.9721782004999997
   335   1      23.588650133200002      18.908133722300001           20.2392493537
   336   1             11.78307408      15.962214787500001      10.551917271600001
   337   1      16.768950568800005      27.117669830100002      9.9737500565000001
   338   1      16.413356478300003      9.4601017593000005      15.831931658300004
   339   1      25.697547788800001      2.6771320957000002      20.546088302000001
   340   1             7.123973039      22.383888453900003      4.1297432667000002
   341   1      19.069789951400004           26.3854342194      12.439922455600001
   342   1      15.780363553800003           13.1129080954      19.130105904400004
   343   1      7.0565987027999988      13.725153873999998      3.8571634074999999
   344   1      6.5404267649999994      17.223670470300004           17.6206677994
   345   1           13.3081121958      22.220254560500003      2.3417234318000002
   346   1      12.368882881699999      17.007869575200004           12.6175716063
   347   1      9.6889378323999988      6.1199828814000004      3.3646357490999996
   348   1      19.367432025000006      1.2322340706999999      7.5098432156000001
   349   1      2.8769394821000001           21.4748285252      18.338294274900004
   350   1      10.853319662600001      9.3328369818999999       9.198788885199999
   351   1           13.8163309824      1.3319205866999999      8.6186751785000002
   352   1      24.680760109900003      5.2063849791000001      16.239341427400007
   353   1      23.442860312400004      16.748212026200004      16.651674317300003
   354   1      21.584902480200004           12.0277716007      4.7032803677999997
   355   1      15.622682505500002      13.434594360299998      16.715537931300005
   356   1           10.1492656273      19.714353779100001           12.5502718117
   357   1      12.562246571399998            0.9709693948      6.7415264239999999
   358   1      22.620759527800004           10.4993545165      12.245070631200001
   359   1           16.7659369918      1.7851148379999999      11.215189301300001