LAMMPS (22 Jul 2025)
  using 4 OpenMP thread(s) per MPI task
units           metal
dimension       3
boundary        p p p
atom_style      atomic

timestep        0.001

read_data       Ti_aSi_PBC_rst.data
Reading data file ...
  orthogonal box = (0 0 0) to (25.994814 25.994814 46.795331)
  1 by 2 by 2 MPI processor grid
  reading atoms ...
  1810 atoms
  read_data CPU = 0.042 seconds

group           si_atoms type 1
730 atoms in group si_atoms
group           ti_atoms type 2
1080 atoms in group ti_atoms

mass            1 28.0855  # Si
mass            2 47.867   # Ti

pair_style      tersoff
pair_coeff      * * TSCBOP.tersoff Si Ti

neighbor        2.0 bin
neigh_modify    delay 0 every 1 check yes

thermo          1000
thermo_style    custom step temp pe press vol

compute         msd_si si_atoms msd
compute         msd_ti ti_atoms msd
compute         pe_atom all pe/atom
compute         ke_atom all ke/atom

dump            1 all custom 10000 dump.continue.lammpstrj id type x y z vx vy vz c_pe_atom c_ke_atom

fix             1 all npt temp 623.15 623.15 0.1 iso 0.0 0.0 1.0

run             18000000
Neighbor list info ...
  update: every = 1 steps, delay = 0 steps, check = yes
  max neighbors/atom: 2000, page size: 100000
  master list distance cutoff = 5.8838
  ghost atom cutoff = 5.8838
  binsize = 2.9419, bins = 9 9 16
  1 neighbor lists, perpetual/occasional/extra = 1 0 0
  (1) pair tersoff, perpetual
      attributes: full, newton on
      pair build: full/bin/atomonly
      stencil: full/bin/3d
      bin: standard
Per MPI rank memory allocation (min/avg/max) = 6.997 | 6.997 | 6.997 Mbytes
   Step          Temp          PotEng         Press          Volume    
         0   0             -9473.8679     -5503.4533      31621.026    
      1000   615.15739     -9476.813      -843.51019      31565.01     
      2000   645.09671     -9476.3378     -961.56585      31561.323    
      3000   622.04348     -9477.782       513.26134      31578.77     
      4000   623.39327     -9473.2736     -1317.7761      31618.977    
      5000   586.9931      -9474.8072      113.49753      31534.4      
      6000   633.83157     -9475.5846      5653.2902      31469.724    
      7000   632.75631     -9474.4172      1208.0002      31530.489    
      8000   632.01823     -9483.0827     -2213.3298      31560.038    
      9000   638.35696     -9477.0162      1608.6429      31535.617    
     10000   637.39763     -9482.3439      4257.9595      31459.338    
     11000   618.75537     -9474.5026      1234.4436      31521.015    
     12000   619.8551      -9480.3278     -4045.6896      31569.675    
     13000   629.54979     -9480.9718      2333.4016      31453.735    
     14000   628.93397     -9481.8186      1296.2148      31522.03     
     15000   636.20126     -9480.7512      928.09454      31596.264    
     16000   628.73844     -9482.942      -1472.7975      31561.737    
     17000   615.79721     -9476.8004     -3029.5436      31633.159    
     18000   628.45694     -9482.9782     -854.8994       31545.994    
     19000   622.53267     -9480.034       4505.7697      31511.741    
     20000   617.3979      -9480.1455     -791.61467      31580.484    
     21000   609.85931     -9477.002      -1115.66        31656.544    
     22000   610.37784     -9478.4299      1203.585       31551.668    
     23000   635.70634     -9480.8506      4617.0018      31442.832    
     24000   610.7896      -9476.3808      3251.4351      31501.387    
     25000   630.18876     -9483.0341     -1645.1459      31510.54     
     26000   641.28263     -9482.2935     -1662.1231      31568.174    
     27000   631.00215     -9480.1097      4249.9016      31442.534    
     28000   599.91397     -9482.5843      421.39502      31517.596    
     29000   626.23206     -9481.1943      860.17931      31537.195    
     30000   639.87933     -9478.4069     -2644.7381      31568.927    
     31000   621.04821     -9481.097      -1778.9629      31508.087    
     32000   617.50232     -9483.9418      1949.4054      31501.78     
     33000   630.13842     -9482.5345     -2576.0161      31515.059    
     34000   596.55574     -9480.8789      2855.4595      31522.657    
     35000   643.04578     -9480.1778     -2423.6543      31569.637    
     36000   604.37784     -9481.8313     -689.9982       31557.792    
     37000   635.8058      -9479.0245     -2635.0305      31569.058    
     38000   623.94535     -9481.1852     -1013.8701      31566.339    
     39000   634.94646     -9485.5027      10.461435      31502.769    
     40000   637.70852     -9482.6862      1192.3215      31521.331    
     41000   601.41421     -9485.3125     -572.51859      31515.224    
     42000   626.93695     -9484.1162     -2360.2169      31539.087    
     43000   610.93608     -9484.1561      4482.4874      31406.314    
     44000   625.34288     -9487.1008     -94.114369      31499.492    
     45000   622.22076     -9482.7087     -3907.2405      31560.481    
     46000   607.71989     -9487.4767      975.91485      31454.026    
     47000   629.82522     -9485.4907     -735.7044       31510.74     
     48000   617.22302     -9481.4539      4521.0815      31423.036    
     49000   631.35129     -9484.6668     -4215.6426      31557.111    
     50000   620.42522     -9482.6684     -26.12274       31487.958    
     51000   637.2015      -9482.7108     -420.61324      31506.394    
     52000   617.26243     -9481.6192      1967.1018      31436.942    
     53000   617.32763     -9481.7336     -1261.9667      31516.414    
     54000   624.31027     -9485.282      -4823.8255      31548.597    
     55000   622.19063     -9485.6827      1574.3599      31485.206    
     56000   607.79602     -9479.2691      525.80229      31490.229    
     57000   614.16668     -9486.4798      1247.675       31459.149    
     58000   621.84856     -9481.5665      497.20179      31469.742    
     59000   622.27775     -9483.4933     -735.94054      31470.109    
     60000   633.08345     -9479.3638      131.34526      31477.639    
     61000   627.68301     -9483.0083      1026.2303      31455.892    
     62000   593.26057     -9484.4785     -1236.7416      31471.736    
     63000   627.79364     -9482.7344     -440.13511      31474.277    
     64000   628.70361     -9492.1747     -1580.0054      31509.258    
     65000   646.55825     -9482.9869      3593.2753      31424.354    
     66000   643.49146     -9488.489      -535.24854      31467.466    
     67000   642.75284     -9489.3752     -1394.2987      31522.111    
     68000   624.9166      -9485.065      -2259.5815      31483.353    
     69000   617.24965     -9487.6998     -2726.613       31472.744    
     70000   627.8022      -9482.5449      1145.1853      31422.804    
     71000   630.85603     -9487.5609      677.14329      31470.049    
     72000   616.41035     -9481.758      -2856.4108      31484.492    
     73000   610.21423     -9488.8424      1743.8043      31355.965    
     74000   628.33181     -9484.7044      1450.4151      31413.643    
     75000   632.71623     -9488.8025     -2779.9638      31546.524    
     76000   627.57099     -9484.1658     -2791.0274      31485.099    
     77000   620.63342     -9484.9864     -1959.5228      31504.54     
     78000   604.93876     -9486.3563     -2393.7683      31486.109    
     79000   621.60572     -9482.74        422.2436       31483.046    
     80000   610.28618     -9492.1708      1009.7435      31440.574    
     81000   632.49717     -9486.1764      1691.7834      31415.296    
     82000   617.91005     -9488.525       1137.4011      31412.849    
     83000   649.0446      -9485.2976      5947.9572      31326.55     
     84000   611.49157     -9488.1394     -1713.514       31468.52     
     85000   655.55427     -9490.5776      4766.3977      31386.973    
     86000   630.99585     -9488.6336     -775.20816      31463.723    
     87000   643.64303     -9489.5774     -1770.5206      31451.574    
     88000   618.3627      -9484.8051     -758.40554      31436.381    
     89000   622.02242     -9489.62        1117.2651      31426.211    
     90000   626.6148      -9488.5142      2971.7914      31368.521    
     91000   610.74953     -9484.908      -3944.1179      31506.897    
     92000   612.79912     -9492.0955      1638.2785      31386.665    
     93000   616.62769     -9489.6815      762.00602      31386.346    
     94000   621.43879     -9492.9744      3063.4057      31384.585    
     95000   625.6338      -9489.2962     -408.42308      31403.633    
     96000   624.50837     -9488.9228     -3072.2278      31480.742    
     97000   602.18708     -9484.7269      2307.9197      31384.156    
     98000   623.36267     -9489.9324     -2066.9762      31423.635    
     99000   606.79324     -9491.1888     -260.4005       31395.401    
    100000   610.84871     -9492.791      -1800.5477      31463.126    
    101000   625.47677     -9487.3453     -3485.4565      31499.954    
    102000   616.97787     -9489.4803     -2220.445       31483.623    
    103000   617.18148     -9490.1637      2143.098       31387.021    
    104000   617.32085     -9489.1519      1132.6177      31384.618    
    105000   628.0733      -9494.9909      2153.7433      31341.883    
    106000   620.70156     -9492.5516     -204.39835      31425.702    
    107000   624.44062     -9492.3238      155.31673      31417.198    
    108000   618.37549     -9485.5428     -105.5814       31432.462    
    109000   639.49819     -9493.7488     -4968.9592      31492.121    
    110000   622.89784     -9488.3573      44.905843      31425.099    
    111000   632.7706      -9489.1166     -2120.0718      31464.604    
    112000   622.90775     -9488.7685      1071.8492      31404.501    
    113000   606.9558      -9492.4604     -1.237453       31425.163    
    114000   632.84119     -9487.8544      326.87522      31417.435    
    115000   628.31713     -9494.811      -511.25053      31416.223    
    116000   609.95688     -9486.6398      434.74554      31438.103    
    117000   628.81904     -9495.8273     -4514.5185      31447.821    
    118000   619.29709     -9489.8371     -2496.2566      31444.049    
    119000   640.08626     -9489.9611      2518.5686      31386.837    
    120000   616.05358     -9491.1947      3080.4266      31389.683    
    121000   608.03669     -9493.9675      34.902815      31430.858    
    122000   637.2431      -9486.0956     -883.94789      31458.063    
    123000   648.77036     -9492.3156     -1063.8692      31458.942    
    124000   623.16612     -9494.7399      1312.5442      31405.686    
    125000   610.96437     -9494.3612      3799.0822      31375.908    
    126000   632.21584     -9492.0129     -1045.5039      31413.867    
    127000   613.92676     -9487.8131      849.7554       31397.071    
    128000   629.58455     -9494.6618     -1399.7483      31389.569    
    129000   628.14921     -9487.5957     -932.79458      31441.362    
    130000   618.99514     -9492.975      -1680.7001      31472.135    
    131000   628.25333     -9487.7396     -2153.955       31429.436    
    132000   616.80531     -9493.7774      1898.6778      31370.815    
    133000   619.69019     -9489.3904      1265.6969      31422.628    
    134000   632.07136     -9498.2394      4404.2405      31364.738    
    135000   622.04124     -9495.0074     -452.57954      31449.344    
    136000   626.17884     -9491.4497     -2839.2709      31513.193    
    137000   632.16827     -9495.7893      3657.0074      31370.516    
    138000   601.86916     -9494.2421      1140.198       31329.397    
    139000   640.31505     -9490.8978      665.37172      31438.622    
    140000   619.67375     -9493.5292      570.0401       31412.73     
    141000   639.11177     -9489.8464      609.90678      31403.433    
    142000   618.47868     -9494.6681     -2024.9744      31444.3      
    143000   634.45736     -9498.8072      643.88871      31387.407    
    144000   620.58698     -9494.2953      3433.9559      31341.38     
    145000   622.16632     -9497.1019      2956.8716      31366.543    
    146000   631.8908      -9495.112      -1079.1093      31393.059    
    147000   616.65491     -9494.8468      491.40965      31334.326    
    148000   645.23708     -9492.4442      3621.0054      31337.189    
    149000   627.72204     -9494.0582      1979.1288      31381.77     
    150000   615.09099     -9497.9276      3306.0723      31325.508    
    151000   623.12251     -9490.4569     -1180.7432      31434.041    
    152000   609.20958     -9494.0176     -2485.9505      31440.501    
    153000   627.58813     -9493.0426      85.013464      31442.449    
    154000   605.41539     -9497.951       2452.7007      31332.442    
    155000   623.39013     -9491.5428     -1623.0966      31427.94     
    156000   632.01242     -9494.4756      2390.0456      31399.576    
    157000   618.72457     -9502.1687      2078.3835      31352.171    
    158000   635.53873     -9497.924      -1450.4361      31479.638    
    159000   618.40691     -9497.4977      1926.2072      31430.362    
    160000   630.30491     -9492.2652     -1681.9316      31432.165    
    161000   614.72442     -9495.85       -2882.3308      31480.495    
    162000   640.52523     -9493.368       2769.7834      31351.391    
    163000   610.71914     -9498.127      -2219.016       31430.699    
    164000   639.91944     -9491.8168      269.63565      31407.141    
    165000   621.42467     -9498.9314      2072.5876      31385.271    
    166000   634.90272     -9498.038      -228.22289      31429.683    
    167000   620.38847     -9494.9524      608.06962      31426.295    
    168000   619.36216     -9493.2793     -1278.4275      31412.308    
    169000   603.26225     -9497.4761     -2416.0635      31460.377    
    170000   623.42012     -9493.529       1872.5619      31394.184    
    171000   640.77869     -9500.2462      85.660852      31421.915    
    172000   621.77879     -9495.5344      4672.9218      31375.154    
    173000   611.16748     -9499.5624      3745.5998      31359.431    
    174000   625.94596     -9496.8254      3210.92        31362.186    
    175000   597.07106     -9494.5897     -4457.5308      31489.387    
    176000   651.50265     -9498.0937      3768.8455      31367.676    
    177000   619.66051     -9497.2049     -630.63378      31417.207    
    178000   618.57528     -9494.7599     -868.30763      31461.337    
    179000   605.70591     -9498.5602     -783.66136      31418.206    
    180000   607.65576     -9500.3835     -2491.2443      31450.599    
    181000   621.33162     -9500.7728     -1086.4669      31471.401    
    182000   633.41975     -9497.3373      2655.1764      31422.299    
    183000   604.5486      -9496.9656     -799.62078      31454.146    
    184000   597.37549     -9502.7044      5262.2753      31358.579    
    185000   612.71762     -9494.606       2625.8955      31372.077    
    186000   626.16551     -9507.1601     -3187.5444      31464.206    
    187000   644.86602     -9499.3752      2198.0015      31353.98     
    188000   598.60621     -9497.3187      1416.2353      31437.553    
    189000   627.58544     -9495.3134      126.06057      31446.589    
    190000   631.16792     -9501.2173      842.67832      31394.064    
    191000   643.97812     -9500.6228      2849.893       31388.358    
    192000   619.40812     -9504.3686     -1549.3487      31410.936    
    193000   639.1453      -9501.6053      1521.6849      31364.868    
    194000   620.49825     -9505.6845      2201.2282      31380.476    
    195000   640.72523     -9500.0575      925.48608      31423.927    
    196000   613.90785     -9503.4591     -991.49287      31434.548    
    197000   639.71023     -9501.8707      2219.4717      31382.889    
    198000   638.53773     -9498.8909     -1209.3319      31447.05     
    199000   633.36895     -9506.4108      678.39487      31389.404    
    200000   630.97382     -9496.1014     -1740.6468      31419.288    
    201000   632.16982     -9503.2819     -1174.3045      31403.18     
    202000   616.95319     -9502.6748      245.70286      31478.079    
    203000   637.26996     -9499.9977     -2118.9752      31435.945    
    204000   636.34499     -9497.2616     -1470.0319      31438.127    
    205000   614.49949     -9501.8156      1508.3674      31404.407    
    206000   611.61874     -9494.9075     -865.88231      31466.808    
    207000   638.92538     -9501.9298      2013.1003      31440.074    
    208000   613.06822     -9498.7303     -1762.6745      31506.709    
    209000   612.96707     -9507.4777     -2011.2116      31470.423    
    210000   627.09554     -9498.668       260.2207       31451.08     
    211000   629.06619     -9503.205       3987.9428      31378.789    
    212000   621.68013     -9501.0211      2324.9888      31462.818    
    213000   625.73438     -9501.1998      1129.5546      31449.757    
    214000   621.39894     -9497.8826      3316.4636      31394.073    
    215000   602.27448     -9500.2827      3092.9589      31386.249    
    216000   609.33391     -9499.6263     -99.967975      31486.614    
    217000   619.77909     -9498.9986     -2958.6439      31493.384    
    218000   638.26642     -9504.1547     -842.62545      31463.258    
    219000   623.58307     -9502.1672     -1176.8136      31422.436    
    220000   616.36718     -9496.0592      606.95281      31455.224    
    221000   594.18934     -9502.1438     -598.54839      31418.714    
    222000   634.02078     -9502.0064     -845.0395       31447.568    
    223000   593.97379     -9501.5707     -2754.8963      31526.657    
    224000   617.06619     -9499.3723      4124.43        31382.705    
    225000   618.94067     -9502.3558      73.230607      31425.364    
    226000   616.35904     -9503.2911      303.03278      31421.258    
    227000   640.93006     -9503.6064      2308.3725      31430.047    
    228000   598.02612     -9502.732      -1495.6441      31470.251    
    229000   628.08451     -9502.3027      2306.5758      31437.048    
    230000   619.53894     -9507.5147      2481.772       31406.243    
    231000   619.004       -9497.7162      890.88252      31477.222    
    232000   625.16131     -9505.1547     -2121.4111      31473.899    
    233000   620.97519     -9505.2708     -193.28238      31472.146    
    234000   612.01927     -9503.7653      1074.5728      31416.6      
    235000   633.35851     -9505.0394      1035.0092      31410.452    
    236000   635.43362     -9508.4868      909.823        31444.497    
    237000   607.88794     -9509.5989     -1377.3601      31429.918    
    238000   611.27141     -9503.7014     -2291.8871      31445.795    
    239000   644.43721     -9503.2875      1755.9945      31421.722    
    240000   606.37495     -9505.279      -867.81833      31421.503    
    241000   636.77809     -9507.7661      592.3238       31404.615    
    242000   634.81049     -9505.991       2495.1023      31387.805    
    243000   643.10633     -9512.3349      2252.0553      31376.466    
    244000   611.11837     -9511.9774      2262.8756      31404.925    
    245000   618.13554     -9506.094      -1726.8731      31462.137    
    246000   609.64172     -9511.8032      1882.0015      31329.961    
    247000   618.22803     -9506.344       2146.8267      31365.426    
    248000   607.6695      -9503.1834     -3227.1995      31483.88     
    249000   611.73168     -9510.6572     -545.46613      31457.476    
    250000   605.44757     -9502.3061      1321.37        31452.819    
    251000   631.26094     -9510.8529     -2719.2266      31490.123    
    252000   646.94311     -9508.0908      388.65298      31461.89     
    253000   613.2809      -9508.2721      421.44729      31400.304    
    254000   631.45329     -9509.2873      2361.1085      31379.96     
    255000   647.10958     -9508.2647      244.28439      31416.612    
    256000   613.00486     -9505.6512      122.52651      31407.703    
    257000   607.98495     -9511.5406      1585.4289      31389.971    
    258000   614.21582     -9504.9331     -3304.8378      31490.003    
    259000   596.98952     -9509.1035     -1274.5702      31417.89     
    260000   637.04179     -9507.7314      1988.9243      31411.282    
    261000   637.90935     -9511.5687     -3004.7758      31484.808    
    262000   648.31179     -9510.188      -2924.3749      31505.515    
    263000   624.06565     -9510.4849      885.83183      31399.978    
    264000   629.15128     -9503.4313     -4462.8048      31477.955    
    265000   617.79561     -9506.2533      1004.983       31428.835    
    266000   628.4577      -9509.9567      2813.5003      31344.802    
    267000   649.04375     -9507.8246     -719.74173      31463.603    
    268000   629.62564     -9507.8523     -472.75251      31413.126    
    269000   638.90856     -9507.3452      732.03782      31399.887    
    270000   616.10021     -9508.4496     -3490.1795      31524.761    
    271000   612.81926     -9513.1412     -445.82232      31387.66     
    272000   631.61342     -9511.4513     -28.405762      31408.551    
    273000   636.44992     -9506.7126      3985.6977      31327.613    
    274000   638.17637     -9510.273       4814.8278      31305.177    
    275000   621.90782     -9505.8002     -28.409962      31402.044    
    276000   596.69487     -9511.6309     -3150.2199      31467.642    
    277000   633.96909     -9506.3524     -813.58562      31440.363    
    278000   639.14741     -9506.0031     -448.36656      31412.295    
    279000   615.1234      -9506.1708      907.53339      31445.8      
    280000   624.42254     -9507.7245     -2934.2397      31474.254    
    281000   631.1763      -9510.3665     -767.16604      31413.596    
    282000   633.19269     -9502.9403     -1613.7166      31483.308    
    283000   628.40853     -9510.7056     -2204.7         31464.012    
    284000   620.90836     -9505.8148     -52.597045      31438.002    
    285000   623.83075     -9510.4285      2081.9443      31405.045    
    286000   618.27438     -9509.2072     -207.02109      31448.765    
    287000   618.18925     -9504.77       -42.421902      31415.356    
    288000   592.35962     -9502.3887     -1982.7796      31462.191    
    289000   602.13978     -9507.1772      1682.1795      31440.029    
    290000   621.42704     -9507.139      -1259.9071      31462.806    
    291000   619.97954     -9515.6567     -3788.1729      31461.829    
    292000   629.92285     -9511.1708     -2241.6162      31474.358    
    293000   622.73951     -9507.2082     -59.610703      31438.795    
    294000   624.18466     -9507.1051     -1415.2355      31472.704    
    295000   615.42821     -9509.1409      2774.4204      31372.526    
    296000   646.56347     -9509.0008      408.01444      31412.946    
    297000   590.84417     -9512.8646      163.58297      31430.786    
    298000   643.95554     -9509.649       1554.0416      31438.103    
    299000   618.2689      -9512.1329      3041.3454      31359.933    
    300000   637.40871     -9510.3346      48.349581      31418.124    
    301000   616.53126     -9509.9398     -28.266211      31391.356    
    302000   619.68324     -9510.7757      520.07709      31397.457    
    303000   636.80896     -9505.5137     -2152.9513      31449.491    
    304000   609.62432     -9505.8363     -2961.8972      31460.549    
    305000   621.70876     -9510.3826      1470.7291      31400.174    
    306000   638.86579     -9504.8613     -878.38269      31426.804    
    307000   621.91678     -9508.9607      907.58803      31382.173    
    308000   601.91891     -9512.9762     -4161.6107      31456.826    
    309000   623.46304     -9507.7035      1630.931       31400.602    
    310000   623.48598     -9510.7992     -1996.9701      31438.873    
    311000   624.29559     -9512.2871      679.59958      31455.791    
    312000   626.48452     -9507.7932     -1902.4094      31502.009    
    313000   592.39714     -9512.7655      1480.4129      31403.373    
    314000   622.00004     -9504.758       729.53705      31425.543    
    315000   600.12149     -9507.4509      3161.1874      31392.116    
    316000   609.72111     -9505.0998     -2024.1933      31429.915    
    317000   606.93413     -9514.9095     -1168.5292      31438.389    
    318000   637.17711     -9508.1201      2121.9064      31328.086    
    319000   646.65825     -9515.3112      1763.8731      31382.87     
    320000   640.77076     -9510.7612     -3511.9714      31501.654    
    321000   616.72604     -9504.7174     -214.12388      31414.507    
    322000   608.82081     -9510.5023      675.27246      31451.587    
    323000   641.37287     -9510.3512      257.58528      31430.23     
    324000   605.46933     -9505.3861     -4375.6693      31521.595    
    325000   615.15914     -9514.7167     -1175.6162      31451.76     
    326000   636.39044     -9515.5899     -3383.899       31468.55     
    327000   639.27368     -9506.5464     -3689.2796      31461.422    
    328000   612.88933     -9512.8549     -2813.1049      31466.498    
    329000   623.13994     -9508.6665     -2803.4329      31481.522    
    330000   614.71875     -9514.9007      1147.6125      31427.139    
    331000   638.79952     -9509.9146      55.743097      31411.773    
    332000   599.01836     -9515.6682     -3740.7985      31485.284    
    333000   619.22108     -9509.9131     -306.55552      31470.724    
    334000   633.4719      -9510.5797     -3445.282       31492.403    
    335000   627.95077     -9513.599       762.12145      31408.991    
    336000   612.97386     -9511.2896     -1013.7611      31466.55     
    337000   631.75642     -9505.5229      208.95263      31436.131    
    338000   629.10459     -9503.6069     -2035.6093      31496.8      
    339000   611.20396     -9509.8933     -2421.348       31444.428    
    340000   632.02359     -9505.9247     -998.14131      31415.882    
    341000   611.73283     -9509.4987     -630.4811       31421.9      
    342000   631.21299     -9505.6611      245.12229      31461.531    
    343000   620.44518     -9511.9179      1826.7018      31391.831    
    344000   642.89062     -9504.0853      227.49891      31436.477    
    345000   612.15885     -9508.2509     -2045.0078      31506.522    
    346000   653.7908      -9507.8943      146.07806      31413.966    
    347000   620.99967     -9514.4606     -1031.6992      31464.846    
    348000   650.2651      -9511.0892      2436.6727      31362.041    
    349000   605.45989     -9505.4506      1839.1967      31378.246    
    350000   594.26058     -9508.2671      1608.4131      31411.462    
    351000   621.44908     -9509.3219      275.22237      31412.852    
    352000   616.50023     -9510.1156     -1529.9269      31461.529    
    353000   623.43001     -9504.856      -1728.3226      31439.417    
    354000   626.19596     -9510.4324      1563.9275      31423.831    
    355000   628.48063     -9511.8989     -2620.1126      31487.264    
    356000   607.59216     -9511.1405      1766.0658      31387.102    
    357000   620.01311     -9510.4453      760.25         31463.552    
    358000   615.2253      -9513.8131      1921.8042      31404.433    
    359000   627.13739     -9505.8801     -3179.5518      31559.071    
    360000   620.76926     -9508.5666     -3548.8118      31503.191    
    361000   598.26447     -9508.9756      4546.5191      31401.811    
    362000   620.41223     -9510.0846      2042.6432      31445.788    
    363000   635.10637     -9513.5729     -1339.3533      31467.923    
    364000   624.34282     -9508.9383     -4109.0344      31517.019    
    365000   621.44624     -9509.1781     -247.58604      31476.996    
    366000   617.77091     -9509.6351     -1928.1624      31443.817    
    367000   619.4304      -9514.1295     -935.56723      31441.289    
    368000   617.02845     -9505.921      -2557.1958      31520.636    
    369000   614.16996     -9512.5625     -5898.3641      31557.373    
    370000   616.85557     -9510.7591      4226.4083      31356.621    
    371000   613.88907     -9509.8856     -1546.7363      31469.733    
    372000   603.69893     -9514.0013     -251.60155      31392.63     
    373000   616.59242     -9507.4122      76.813193      31463.111    
    374000   612.99472     -9516.0386      1823.5547      31402.44     
    375000   624.30899     -9510.2796     -433.40916      31458.811    
    376000   629.4801      -9515.6897      371.36408      31402.64     
    377000   626.51479     -9514.1353      628.05261      31420.539    
    378000   605.98225     -9510.9609      2707.3734      31387.814    
    379000   638.10015     -9517.8562     -2166.0716      31444.419    
    380000   632.40017     -9514.2779     -2396.4116      31465.262    
    381000   603.03615     -9507.5525     -1072.5387      31437.183    
    382000   639.60871     -9516.0726     -823.07994      31465.303    
    383000   611.63831     -9515.1432     -1455.1951      31483.495    
    384000   635.83288     -9511.8895     -3048.2731      31529.362    
    385000   613.69345     -9515.1955      153.26373      31437.018    
    386000   623.90126     -9511.927      -1256.883       31490.042    
    387000   605.44025     -9514.3211     -651.68579      31459.58     
    388000   610.50139     -9514.7983      2701.4022      31453.152    
    389000   639.36008     -9512.5955      3705.6757      31397.002    
    390000   605.42989     -9517.0771     -897.06621      31465.104    
    391000   627.78629     -9512.1816     -2784.6434      31465.595    
    392000   627.26276     -9514.7721     -560.59174      31462.045    
    393000   625.29215     -9518.1154      3325.5915      31378.57     
    394000   617.41973     -9516.6057     -366.0817       31434.504    
    395000   625.66877     -9509.1234     -535.61635      31426.127    
    396000   634.57402     -9514.4647     -3500.9148      31504.629    
    397000   624.99803     -9515.9584     -1598.4172      31447.985    
    398000   616.74133     -9517.5382     -225.28307      31431.004    
    399000   632.59612     -9511.8715      938.15732      31462.807    
    400000   633.5121      -9518.0384     -2252.2688      31477.208    
    401000   616.2642      -9511.0471     -2664.5568      31474.039    
    402000   611.79865     -9515.7076     -2623.4783      31452.868    
    403000   631.23606     -9515.4724      2540.0685      31402.072    
    404000   647.47198     -9514.967       4420.1865      31427.081    
    405000   624.88355     -9508.3301      1798.4406      31438.09     
    406000   603.22043     -9516.8692      1983.2952      31427.611    
    407000   638.10493     -9514.8823      1386.1627      31436.433    
    408000   618.8047      -9518.6915     -957.06434      31433.179    
    409000   628.14146     -9513.7285     -1274.2047      31506.521    
    410000   626.70376     -9516.4774      1174.4859      31447.379    
    411000   625.8393      -9510.2105     -2163.9431      31507.522    
    412000   612.91741     -9513.5451      1211.799       31448.432    
    413000   648.01091     -9512.2388     -1161.951       31465.625    
    414000   629.67603     -9512.0806      3646.2785      31417.989    
    415000   612.51246     -9512.302       321.78127      31455.959    
    416000   639.25072     -9514.5834      418.80161      31439.966    
    417000   616.35034     -9518.2369     -1930.2755      31468.549    
    418000   615.91461     -9509.5141      4343.4406      31399.796    
    419000   614.46159     -9505.4438      2195.9083      31415.541    
    420000   621.73298     -9513.4374     -3897.7668      31522.034    
    421000   644.64857     -9512.9557     -6641.3412      31575.167    
    422000   590.88575     -9513.2736     -4123.4476      31487.258    
    423000   629.52776     -9512.4358      423.41166      31451.11     
    424000   607.24404     -9517.5927     -980.19523      31457.565    
    425000   616.44801     -9517.4489      819.1433       31377.911    
    426000   626.19465     -9514.5995      175.5997       31416.07     
    427000   657.74365     -9512.0488     -1363.9156      31486.222    
    428000   608.79208     -9513.2488     -169.58157      31465.286    
    429000   629.3356      -9514.3828      493.36911      31436.142    
    430000   623.3434      -9512.631       465.63279      31475.574    
    431000   640.57965     -9513.9186     -32.386013      31463.002    
    432000   603.46457     -9511.4289     -1068.4482      31443.391    
    433000   616.81133     -9507.2588     -1391.5636      31493.123    
    434000   604.46715     -9515.4432      2960.1525      31397.452    
    435000   616.13957     -9510.2515      882.63111      31435.442    
    436000   611.52728     -9518.9791      473.83211      31427.705    
    437000   639.57014     -9517.1137     -1796.6163      31475.161    
    438000   633.66253     -9515.6292      4127.0108      31383.86     
    439000   619.7766      -9522.0218      3183.5091      31399.307    
    440000   631.03287     -9513.8199     -68.313843      31453.054    
    441000   606.05089     -9507.1462      526.13538      31464.295    
    442000   628.86746     -9506.8982      293.4922       31454.871    
    443000   626.16219     -9518.786       837.48698      31442.741    
    444000   624.68599     -9509.7431      1702.3061      31434.159    
    445000   607.44618     -9513.4814     -1838.5188      31472.016    
    446000   606.98661     -9514.2747     -2313.246       31473.541    
    447000   632.2923      -9513.3674     -1133.8793      31440.228    
    448000   594.8387      -9517.0526      3279.3324      31391.009    
    449000   624.85499     -9514.7537      32.601488      31451.122    
    450000   619.5339      -9514.698       1006.7303      31420.112    
    451000   613.17214     -9517.2673     -1066.6328      31459.764    
    452000   623.9474      -9513.7724      4531.4489      31408.926    
    453000   605.76348     -9516.3212     -3283.3644      31548.46     
    454000   631.20609     -9514.2232     -989.95197      31472.064    
    455000   624.48182     -9515.8428     -2795.2768      31455.681    
    456000   619.42988     -9519.3894      352.46248      31452.804    
    457000   636.48589     -9512.136       548.48097      31485.37     
    458000   621.04687     -9517.7014     -2173.2144      31505.734    
    459000   633.56628     -9520.2178      738.82515      31432.512    
    460000   604.18267     -9512.1146      632.5543       31484.19     
    461000   645.54229     -9516.8628     -1171.2114      31464.943    
    462000   617.21746     -9517.0879     -1893.4759      31464.394    
    463000   613.14274     -9520.6141     -2721.0327      31476.404    
    464000   629.24128     -9514.4562     -2031.7638      31457.25     
    465000   638.0795      -9521.8755      1437.7778      31450.164    
    466000   625.64552     -9522.4851      3020.7057      31370.394    
    467000   622.04988     -9515.2702     -6696.8521      31541.904    
    468000   634.14969     -9515.9846     -2199.3165      31433.501    
    469000   593.67017     -9518.3854      1405.7599      31424.968    
    470000   619.09614     -9518.0052      627.93932      31447.529    
    471000   608.50821     -9514.2886      1596.3364      31442.806    
    472000   629.13318     -9519.3235      3634.8782      31365.736    
    473000   597.18764     -9518.7518     -1773.8145      31454.68     
    474000   638.48174     -9517.8522     -483.53868      31447.346    
    475000   610.17754     -9520.6689     -1889.2862      31450.767    
    476000   609.18243     -9514.4197     -2559.6347      31449.617    
    477000   627.39353     -9519.3374     -397.32275      31397.483    
    478000   636.40987     -9518.4646     -28.805542      31372.831    
    479000   612.18126     -9522.0479      1571.5395      31352.605    
    480000   623.40397     -9518.0448      2813.6336      31358.574    
    481000   646.89697     -9517.1696     -82.207326      31403.75     
    482000   625.67174     -9522.6775     -369.30965      31418.584    
    483000   632.95249     -9517.008      -514.90864      31413.288    
    484000   637.0837      -9522.7841     -1081.8773      31435.344    
    485000   644.54798     -9514.7289      4112.4173      31347.636    
    486000   613.64164     -9518.8294     -3923.7825      31526.399    
    487000   648.35144     -9520.5518      495.37347      31412.64     
    488000   618.7375      -9524.6532     -1544.6499      31438.617    
    489000   636.96322     -9516.9917      2555.9718      31399.118    
    490000   613.25053     -9520.072       978.6265       31429.481    
    491000   612.45223     -9515.1119     -2063.1017      31449.074    
    492000   621.02458     -9518.0869     -1567.3683      31450.764    
    493000   607.9567      -9518.3882     -1302.9457      31442.606    
    494000   632.46141     -9517.32       -426.57955      31442.515    
    495000   618.74271     -9521.2113      522.52301      31445.226    
    496000   615.06279     -9519.2157     -2613.3181      31449.663    
    497000   645.04144     -9518.8718     -1082.4375      31408.458    
    498000   611.30498     -9519.6368     -879.08897      31428.415    
    499000   603.41751     -9519.4592     -4172.1651      31464.314    
    500000   618.91377     -9520.4341     -1836.5877      31495.831    
    501000   610.85576     -9515.5025      1371.4032      31417.242    
    502000   626.44915     -9523.7788      1767.557       31429.06     
    503000   648.68239     -9521.55       -501.46298      31466.35     
    504000   639.1457      -9523.7811      1758.6426      31409.585    
    505000   622.06452     -9518.8254      1233.6039      31440.183    
    506000   635.53525     -9519.8434     -1552.4756      31454.739    
    507000   619.39711     -9520.1381     -2927.6788      31437.374    
    508000   634.1786      -9522.0863      1095.1384      31471.415    
    509000   626.24619     -9521.6101     -3714.0909      31479.903    
    510000   640.98133     -9525.9204     -3596.9118      31455.217    
    511000   638.09212     -9521.4721     -1302.9216      31419.29     
    512000   593.9268      -9520.3812     -116.63094      31417.674    
    513000   627.59909     -9519.0477      2549.2579      31346.749    
    514000   614.96867     -9523.5932     -127.07112      31409.488    
    515000   615.01654     -9521.0451      11.27658       31403.257    
    516000   631.33205     -9526.7427     -227.25698      31435.121    
    517000   629.27129     -9526.9312      159.62208      31402.286    
    518000   637.22198     -9524.0458     -3848.965       31445.668    
    519000   613.10005     -9526.3174      2410.7603      31413.694    
    520000   621.98519     -9524.6723      131.51136      31429.319    
    521000   615.10088     -9522.6837     -3019.2081      31479.116    
    522000   622.69395     -9522.6078      781.57873      31442.141    
    523000   623.64675     -9517.5193      179.53123      31462.339    
    524000   602.97881     -9524.8428     -357.08365      31436.579    
    525000   633.6415      -9521.219       1188.554       31424.728    
    526000   613.99959     -9517.132      -1696.5899      31447.927    
    527000   623.09304     -9522.3491     -966.0335       31474.169    
    528000   608.41438     -9516.8337     -72.217299      31434.606    
    529000   626.35973     -9526.1592     -1826.6093      31471.394    
    530000   635.70266     -9519.6201      3488.4108      31341.744    
    531000   636.70973     -9514.9738     -5527.7926      31542.862    
    532000   627.00691     -9521.6566     -1771.2523      31432.241    
    533000   615.00025     -9524.5679     -2460.753       31483.235    
    534000   654.58093     -9527.2173     -2209.5949      31434.864    
    535000   629.30366     -9529.3526     -831.79794      31436.313    
    536000   632.35796     -9526.204      -1936.6318      31428.069    
    537000   615.48857     -9524.1782     -1070.4096      31428.209    
    538000   618.62253     -9524.8663     -1768.6717      31435.158    
    539000   629.74068     -9522.1289     -2422.0447      31447.659    
    540000   637.87281     -9530.1628      540.98981      31390.135    
    541000   642.21025     -9531.4089      2746.3645      31304.415    
    542000   632.9913      -9517.3077      52.747344      31463.373    
    543000   605.00226     -9526.4931     -5284.5023      31486.023    
    544000   614.49075     -9519.6397      548.06642      31393.649    
    545000   627.05439     -9526.0364     -2102.9621      31437.19     
    546000   636.73278     -9524.2732     -4146.531       31490.006    
    547000   617.18326     -9522.1426      2431.4402      31403.838    
    548000   607.47579     -9527.3329      2501.3669      31369.819    
    549000   620.87473     -9527.6074     -525.11402      31459.656    
    550000   653.6525      -9525.0306     -720.78783      31434.216    
    551000   623.19838     -9524.9274     -2629.3851      31447.751    
    552000   636.66314     -9524.8937     -2660.1571      31453.424    
    553000   608.15584     -9523.8938     -5317.2198      31485.059    
    554000   639.32009     -9530.5776     -404.35685      31378.869    
    555000   629.18093     -9526.5962      348.78119      31362.767    
    556000   620.78182     -9533.6333      1481.8753      31357.368    
    557000   614.77974     -9525.3751      2063.6979      31382.706    
    558000   626.82778     -9518.3611     -1102.284       31481.471    
    559000   606.10038     -9525.7954      1323.0031      31370.031    
    560000   620.23929     -9523.7549      2424.1972      31361.77     
    561000   621.39523     -9529.2566     -793.5277       31410.976    
    562000   640.91464     -9530.2297      1621.9718      31413.521    
    563000   612.52589     -9526.0565      2136.0927      31376.162    
    564000   621.35026     -9529.5688     -3259.5424      31442.547    
    565000   612.01965     -9524.5936     -2936.0716      31415.139    
    566000   634.61455     -9525.5525     -1068.3911      31402.475    
    567000   622.49847     -9529.4474      3563.6606      31317.383    
    568000   616.68233     -9527.0127      4029.5489      31347.6      
    569000   632.5455      -9532.2863      221.98766      31399.696    
    570000   634.61581     -9531.5366     -1955.9533      31438.93     
    571000   612.92827     -9531.5138      2255.4334      31366.2      
    572000   631.28125     -9528.3208      1656.0274      31391.543    
    573000   649.02813     -9529.7042     -3070.3417      31461.675    
    574000   630.1908      -9532.4846      511.02877      31398.021    
    575000   622.86504     -9528.0529      169.02667      31421.594    
    576000   629.97542     -9525.2597     -1852.0016      31435.99     
    577000   634.74168     -9531.2069     -1719.46        31391.707    
    578000   627.95867     -9530.9976     -3322.6471      31445.13     
    579000   602.15855     -9524.1203     -829.88713      31406.446    
    580000   634.65496     -9528.1512      1618.8853      31377.397    
    581000   605.88674     -9528.5077     -1374.6193      31444.473    
    582000   640.02552     -9528.8613     -1292.741       31410.258    
    583000   625.47129     -9527.2946     -878.39792      31431.775    
    584000   635.05746     -9530.4247      1404.7009      31367.588    
    585000   620.06328     -9526.3954     -233.70896      31408.197    
    586000   634.289       -9529.1328      482.74749      31417.52     
    587000   631.56907     -9523.5535      1879.2492      31376.196    
    588000   617.66433     -9527.0735      1576.1181      31381.439    
    589000   610.97632     -9524.9225      3882.9496      31362.093    
    590000   624.42298     -9529.7803      2353.6718      31421.974    
    591000   633.61587     -9533.1232      3669.7138      31339.103    
    592000   622.74803     -9524.3841     -3024.9567      31474.517    
    593000   617.57631     -9529.6879      3832.982       31349.063    
    594000   631.48881     -9531.1609      1840.0582      31348.331    
    595000   619.07563     -9526.8736     -4606.6687      31496.397    
    596000   620.22331     -9526.1069      1780.1745      31383.353    
    597000   614.25977     -9537.7065      36.153035      31376.313    
    598000   635.60897     -9530.6735      1888.6812      31371.781    
    599000   643.53869     -9529.1017     -4076.0806      31451.478    
    600000   634.95037     -9527.9024      1195.8922      31407.843    
    601000   614.55709     -9524.2577      1361.5195      31365.626    
    602000   610.29425     -9533.7702     -3115.8542      31467.412    
    603000   612.64209     -9524.2911     -2213.5667      31452.761    
    604000   632.48473     -9530.5716     -988.47434      31446.971    
    605000   633.81227     -9532.013      -859.57929      31416.608    
    606000   656.94267     -9533.8246      726.40777      31398.024    
    607000   613.6906      -9530.6592     -11.425104      31369.068    
    608000   629.37147     -9529.7857      5886.3568      31292.959    
    609000   615.17725     -9525.8341     -2716.4049      31451.709    
    610000   602.61507     -9531.3107     -3931.3274      31417.554    
    611000   620.10543     -9527.6425     -965.07256      31428.203    
    612000   627.4127      -9530.2376      4061.6408      31331.56     
    613000   611.7662      -9535.1312     -1925.3844      31414.027    
    614000   589.39695     -9525.8721      2083.2809      31360.221    
    615000   627.51709     -9534.8963     -1416.3534      31434.079    
    616000   649.90457     -9530.6356      58.655437      31402.673    
    617000   630.94856     -9527.2251      6460.3977      31323.336    
    618000   615.3934      -9526.7976     -2066.4093      31435.982    
    619000   652.42572     -9529.7821     -2869.4327      31461.229    
    620000   606.85618     -9527.0846      1162.1343      31409.388    
    621000   632.78087     -9525.6484      229.69437      31398.61     
    622000   608.2114      -9530.4873     -692.51848      31423.434    
    623000   627.42103     -9529.4306      5126.717       31302.771    
    624000   614.84901     -9528.6472      2617.1919      31369.885    
    625000   627.85707     -9528.9748      1338.226       31434.275    
    626000   609.36917     -9526.1444      2213.7978      31438.238    
    627000   616.03652     -9528.6968     -1812.4531      31494.836    
    628000   619.52285     -9528.4054      2906.6021      31344.306    
    629000   633.63481     -9536.8141      2102.5722      31344.789    
    630000   611.61295     -9527.8009     -4382.4261      31479.988    
    631000   599.75387     -9532.0544     -89.574701      31411.286    
    632000   637.18254     -9530.4116     -1943.5629      31446.689    
    633000   612.02649     -9529.127      -1422.3983      31430.251    
    634000   621.2673      -9526.8448     -978.19459      31448.181    
    635000   635.96867     -9534.285       941.88412      31386.506    
    636000   621.54671     -9525.1245     -87.80265       31382.827    
    637000   632.86796     -9531.5244     -4060.4927      31436.056    
    638000   608.32598     -9526.7729     -547.73887      31462.323    
    639000   632.31935     -9529.3443     -1128.8928      31415.752    
    640000   624.05384     -9524.1524     -2254.1329      31480.903    
    641000   618.64532     -9526.5645      711.89889      31452.633    
    642000   617.84597     -9531.477       1459.9351      31360.087    
    643000   637.56677     -9531.792      -4611.9211      31492.938    
    644000   638.57816     -9530.6124      5337.0709      31330.194    
    645000   616.2834      -9528.9448     -2701.5426      31437.575    
    646000   622.14455     -9522.2893      4504.0644      31385.419    
    647000   636.461       -9532.1687      795.98745      31414.593    
    648000   616.67762     -9519.9055      2016.9118      31372.044    
    649000   606.3305      -9530.5487     -4241.3844      31445.393    
    650000   649.45317     -9528.7251     -348.82086      31436.253    
    651000   617.92493     -9529.6236      6975.9548      31291.654    
    652000   634.2867      -9526.6784      1946.7044      31376.402    
    653000   631.9676      -9527.3058      1961.8552      31392.713    
    654000   604.36532     -9526.8909      1831.4227      31376.951    
    655000   646.06305     -9525.013       3313.5284      31375.605    
    656000   639.01165     -9527.0711     -1299.5716      31444.094    
    657000   617.16195     -9530.5846      3782.2989      31353.256    
    658000   627.90098     -9526.0843     -317.84295      31430.459    
    659000   636.31783     -9533.637      -3127.3023      31441.023    
    660000   632.22831     -9524.7075      1422.7656      31396.491    
    661000   633.47271     -9535.1464     -2313.4091      31418.776    
    662000   603.72634     -9529.1722      1532.8594      31360.33     
    663000   620.05915     -9523.6211      257.05554      31378.885    
    664000   650.06728     -9527.6607      441.62252      31429.005    
    665000   614.28162     -9529.3692     -1616.3253      31439.601    
    666000   610.1282      -9534.0674     -3136.9344      31444.658    
    667000   627.20562     -9528.7023     -744.20192      31417.314    
    668000   632.2321      -9536.8997      2357.8432      31348.283    
    669000   621.81069     -9531.7033     -1591.6673      31406.502    
    670000   630.94609     -9525.6239      287.96115      31375.104    
    671000   617.95191     -9527.688      -1634.0784      31395.788    
    672000   588.87429     -9523.4142      4922.9781      31277.198    
    673000   629.18296     -9530.7125      725.89015      31392.65     
    674000   622.51015     -9528.8842     -1232.682       31411.113    
    675000   637.16466     -9528.4934     -1218.5531      31441.616    
    676000   615.73718     -9529.3388     -829.16744      31425.168    
    677000   642.94614     -9525.9333      2204.7216      31391.021    
    678000   633.85597     -9528.0129     -3230.881       31428.361    
    679000   613.0494      -9530.5863      1919.3847      31337.366    
    680000   618.46615     -9528.9115      221.7242       31398.139    
    681000   625.91532     -9526.3121      1879.4863      31394.531    
    682000   620.80596     -9530.5116     -1022.7745      31404.38     
    683000   617.71153     -9531.6699     -148.46195      31395.435    
    684000   637.58093     -9530.3389     -18.465699      31401.355    
    685000   611.55045     -9531.1184     -1072.3571      31428.796    
    686000   643.15889     -9530.5943      1469.1885      31381.163    
    687000   601.41532     -9529.1719     -1562.7787      31423.696    
    688000   618.94361     -9530.6896      1010.9043      31377.25     
    689000   638.64285     -9527.7901      184.55135      31424.286    
    690000   619.18659     -9529.9799     -157.87556      31407.557    
    691000   637.97411     -9527.6336     -845.54228      31423.245    
    692000   609.74594     -9528.677      -1000.8734      31424.438    
    693000   628.13067     -9529.0546      3014.151       31347.229    
    694000   634.49875     -9531.81       -1039.7525      31425.778    
    695000   618.41171     -9528.7673      3405.9151      31324.156    
    696000   600.05647     -9523.6919     -2077.1123      31438.209    
    697000   621.04034     -9532.3565     -2798.0688      31392.702    
    698000   612.339       -9526.8471     -3318.923       31475.266    
    699000   616.76776     -9527.8693      932.58281      31376.108    
    700000   648.87689     -9530.5133      2053.4326      31367.044    
    701000   625.83334     -9530.2888     -4134.238       31460.371    
    702000   601.99653     -9537.0096      157.82264      31360.612    
    703000   631.07003     -9531.4329     -618.56639      31399.524    
    704000   619.04863     -9534.16       -624.69096      31400.854    
    705000   613.57605     -9529.128       692.62678      31350.37     
    706000   633.80727     -9523.6261     -1564.7948      31422.295    
    707000   614.28271     -9532.4102      1771.6481      31306.553    
    708000   630.69535     -9534.3639     -328.06473      31384.678    
    709000   627.98666     -9526.5253     -893.84045      31425.113    
    710000   624.54774     -9530.4757      2756.6897      31362.663    
    711000   600.03798     -9525.9553      225.56067      31407.275    
    712000   609.21805     -9526.3275     -3841.6932      31457.964    
    713000   618.08688     -9539.0177      1696.7543      31346.642    
    714000   618.06157     -9530.2237     -788.64078      31383.753    
    715000   626.50073     -9537.6454     -1678.8535      31408.267    
    716000   627.24794     -9532.3478      1745.6061      31359.009    
    717000   624.76384     -9531.8796      556.46874      31378.453    
    718000   626.96607     -9532.9668      1623.7791      31334.348    
    719000   621.52918     -9524.1192     -1518.1099      31435.982    
    720000   615.22961     -9533.4088     -2894.3256      31465.047    
    721000   620.10179     -9529.2597     -554.35504      31456.863    
    722000   629.90841     -9535.1226     -72.587018      31389.474    
    723000   612.97175     -9533.1184     -1181.5254      31408.239    
    724000   616.08266     -9530.3054     -806.71717      31378.89     
    725000   614.09795     -9533.5204      206.73579      31357.098    
    726000   639.47368     -9531.4572      1635.6821      31305.84     
    727000   616.1355      -9526.4227      160.75333      31383.813    
    728000   625.39111     -9527.1562     -2341.9024      31433.622    
    729000   619.02787     -9537.5857      2395.3871      31314.929    
    730000   627.94236     -9528.5734     -43.601671      31340.03     
    731000   633.7943      -9532.8021     -394.6713       31386.495    
    732000   607.98008     -9529.9792     -578.39925      31394.996    
    733000   615.80934     -9523.1102     -505.78935      31406.301    
    734000   629.19658     -9532.7455     -902.01725      31405.247    
    735000   614.26386     -9531.7922     -3991.1915      31458.511    
    736000   633.80644     -9524.4636      827.84596      31401.893    
    737000   618.98961     -9527.9042     -2954.374       31405.787    
    738000   633.40148     -9533.7448      1688.6515      31379.132    
    739000   616.53656     -9532.1557     -1380.837       31409.785    
    740000   631.98457     -9530.0829      119.19352      31400.6      
    741000   624.22046     -9525.7328     -3048.1217      31444.606    
    742000   608.33937     -9533.7491     -1044.453       31423.3      
    743000   619.4829      -9529.8513      99.393866      31375.691    
    744000   625.7556      -9528.3014      873.88876      31383.488    
    745000   627.06519     -9529.1062      159.13166      31387.834    
    746000   612.03706     -9537.5026      836.24552      31343.984    
    747000   608.73891     -9527.0092     -318.18806      31386.28     
    748000   633.56975     -9533.0056      1173.289       31368.2      
    749000   607.92478     -9528.7928      2121.9703      31377.589    
    750000   612.22187     -9532.7687      1395.856       31341.483    
    751000   646.63873     -9531.195       128.04579      31371.547    
    752000   647.57846     -9535.0954     -422.60485      31342.075    
    753000   633.01693     -9532.9817     -1303.1893      31393.26     
    754000   624.8671      -9530.51       -1284.8947      31394.065    
    755000   613.88526     -9536.9578      463.43062      31396.365    
    756000   619.6978      -9533.2342     -2356.4737      31413.966    
    757000   631.54922     -9532.9301     -2176.1558      31397.549    
    758000   632.00003     -9528.545       2942.9317      31344.182    
    759000   628.19431     -9531.9494     -1409.5297      31466.291    
    760000   618.88703     -9530.5296      756.9226       31394.662    
    761000   618.99186     -9531.692      -801.19607      31372.367    
    762000   610.13891     -9532.8573      2052.411       31337.747    
    763000   633.79246     -9534.2381     -1018.3515      31396.071    
    764000   624.43094     -9532.1054      414.9513       31356.788    
    765000   614.5906      -9534.5678      4884.3119      31273.283    
    766000   620.2379      -9537.8101     -2661.3762      31351.483    
    767000   627.41051     -9529.2874     -2988.9209      31414.901    
    768000   629.47615     -9534.7255     -1702.0685      31365.677    
    769000   626.7766      -9528.0818      2980.6154      31338.309    
    770000   639.86681     -9532.9457      1924.9463      31329.491    
    771000   606.501       -9529.8972     -3469.6717      31433.231    
    772000   606.24075     -9533.1865     -4167.006       31450.989    
    773000   645.46267     -9534.6458      1167.455       31312.043    
    774000   623.15995     -9532.8036     -1925.5322      31350.18     
    775000   615.57521     -9533.731      -3706.2567      31413.648    
    776000   622.03521     -9534.8939     -3334.8596      31401.716    
    777000   619.77546     -9533.1623      3915.4852      31328.507    
    778000   639.89263     -9543.4455     -2832.6022      31382.907    
    779000   630.26453     -9530.5528      693.86551      31376.75     
    780000   614.1344      -9534.0883     -3152.5926      31422.385    
    781000   628.56875     -9533.6315     -3731.1718      31424.317    
    782000   601.45706     -9533.9126     -327.08912      31385.756    
    783000   619.12652     -9531.6673     -2641.5656      31401.051    
    784000   613.5027      -9535.6859      2909.2449      31321.59     
    785000   611.41342     -9535.7716      1246.9091      31306.8      
    786000   630.88902     -9534.8349      1162.9299      31324.521    
    787000   601.8333      -9532.8612      3872.5023      31307.569    
    788000   614.26047     -9531.5137     -1850.952       31423.204    
    789000   606.08951     -9535.4517     -1547.7189      31365.738    
    790000   623.85668     -9534.7201     -613.41763      31376.697    
    791000   629.59285     -9540.6056     -3520.2939      31405.128    
    792000   606.51681     -9531.9718      649.15862      31354.699    
    793000   618.06094     -9540.2184     -923.00178      31352.818    
    794000   631.83103     -9534.2246      163.50234      31338.129    
    795000   621.69471     -9537.9032      1606.7338      31378.582    
    796000   610.75828     -9530.0881     -1757.7123      31343.193    
    797000   602.78452     -9536.5082      1190.3636      31298.905    
    798000   619.6885      -9535.0205     -1528.2216      31343.933    
    799000   642.89298     -9532.6692      3494.9822      31295.679    
    800000   605.13863     -9535.0842     -2292.3201      31368.581    
    801000   639.11097     -9535.8        -4090.1673      31451.658    
    802000   631.5716      -9530.5836     -2397.0975      31392.926    
    803000   622.42928     -9538.2861     -2802.1132      31396.242    
    804000   620.56531     -9540.9976      457.26449      31345.697    
    805000   629.4769      -9535.3879      362.31013      31364.599    
    806000   618.00659     -9537.0711      1096.705       31340.639    
    807000   626.61521     -9531.9066     -748.72463      31399.695    
    808000   625.22161     -9538.6517     -989.55431      31362.898    
    809000   631.3533      -9530.6537     -2670.7625      31377.738    
    810000   600.87356     -9533.5977      1464.1614      31335.794    
    811000   634.90991     -9530.749       1923.8247      31312.666    
    812000   624.72399     -9534.3246      377.90638      31361.582    
    813000   628.83263     -9539.9327      318.45126      31384.202    
    814000   634.33245     -9541.6063      1010.7276      31408.467    
    815000   608.15486     -9532.8819      1004.2391      31406.065    
    816000   603.69629     -9536.2794      5217.8831      31264.889    
    817000   626.66343     -9533.2328     -283.53004      31366.86     
    818000   611.40225     -9539.0997     -3899.4888      31419.403    
    819000   618.03944     -9531.4536     -575.31207      31414.222    
    820000   620.19678     -9534.9323     -2649.8371      31395.687    
    821000   653.86206     -9539.7186      2451.3703      31312.5      
    822000   653.06255     -9536.1547     -633.54266      31404.19     
    823000   607.7256      -9537.4459     -2387.3587      31414.509    
    824000   625.92629     -9535.035      -2233.7647      31435.757    
    825000   616.29421     -9538.5638      2148.9359      31350.215    
    826000   620.0406      -9533.2204     -4170.2917      31452.43     
    827000   605.36092     -9536.358      -1325.6114      31381.688    
    828000   631.66018     -9534.8948      499.29056      31383.844    
    829000   611.30079     -9535.9585      4191.1163      31309.034    
    830000   630.17658     -9538.8001     -2086.6829      31430.484    
    831000   632.53161     -9537.1345     -2431.2003      31465.453    
    832000   637.34345     -9531.9676      776.82072      31379.461    
    833000   630.59561     -9534.8907     -1278.982       31389.492    
    834000   625.47119     -9530.8481      2429.2979      31351.651    
    835000   639.18174     -9533.4184      261.49831      31366.943    
    836000   615.08579     -9536.1641      2633.9072      31367.504    
    837000   635.10256     -9535.9943      1968.9382      31355.805    
    838000   614.40087     -9538.4957      1543.6663      31317.405    
    839000   637.01853     -9536.7039     -1168.9668      31391.965    
    840000   620.19046     -9538.4051      111.306        31352.102    
    841000   629.73306     -9536.8009     -755.92603      31375.251    
    842000   617.82981     -9536.0216     -2942.12        31454.006    
    843000   615.6046      -9534.3125      1660.1987      31361.59     
    844000   617.15607     -9529.1276     -1329.5452      31433.414    
    845000   622.2313      -9537.2742      1186.5695      31386.441    
    846000   635.74777     -9533.3753     -1141.4753      31396.48     
    847000   615.94654     -9535.152      -3740.4517      31436.087    
    848000   626.55221     -9537.3468     -914.63084      31360.54     
    849000   630.77058     -9529.021       1281.1772      31400.217    
    850000   640.88706     -9541.0962      242.78766      31366.928    
    851000   605.77973     -9536.6391      779.17884      31336.854    
    852000   627.39574     -9532.0768      544.78025      31364.513    
    853000   618.70316     -9539.1032     -2265.2771      31374.726    
    854000   635.61917     -9535.0778     -1355.1183      31401.808    
    855000   613.32951     -9535.3913      3974.2163      31310.532    
    856000   631.80379     -9536.346      -3331.6536      31418.411    
    857000   629.4587      -9542.5544     -3415.9887      31429.237    
    858000   624.24874     -9536.5353      2175.8176      31297.627    
    859000   632.56591     -9533.2467     -2233.036       31412.959    
    860000   626.67147     -9540.1372      2054.8278      31324.971    
    861000   618.08456     -9536.1919     -180.16591      31366.154    
    862000   644.29073     -9535.4489     -872.85805      31369.22     
    863000   624.19238     -9535.5095      338.84876      31368.667    
    864000   617.66034     -9533.3611      841.41417      31386.077    
    865000   623.80114     -9535.3862      62.986974      31353.632    
    866000   624.70394     -9536.4455      1335.8086      31356.644    
    867000   619.41777     -9538.3499     -2359.3062      31382.943    
    868000   617.21829     -9534.7476     -2742.6657      31439.998    
    869000   616.0362      -9538.9471      1995.0501      31321.282    
    870000   638.24767     -9538.3677      2017.7932      31327.057    
    871000   630.59481     -9538.497      -822.7267       31374.605    
    872000   594.88551     -9535.0468      2150.1402      31356.626    
    873000   616.45036     -9536.0133     -1156.1153      31396.72     
    874000   644.18725     -9536.4856      1195.6033      31339.611    
    875000   616.34384     -9542.6191     -1437.8315      31387.189    
    876000   625.75331     -9533.345       4245.9989      31296.927    
    877000   628.82067     -9545.0313      2780.4762      31268.933    
    878000   630.10968     -9537.3505     -27.502703      31376.265    
    879000   615.70864     -9540.6755      2882.7201      31313.541    
    880000   614.16062     -9535.0933     -655.60852      31403.947    
    881000   608.08961     -9538.3133      712.58931      31350.379    
    882000   600.43695     -9536.5511     -3518.1311      31424.664    
    883000   612.23586     -9532.5289     -2526.6367      31340.635    
    884000   608.56156     -9537.0305      4905.1128      31260.591    
    885000   626.66245     -9538.7891     -511.05137      31363.66     
    886000   624.00442     -9537.5555     -732.15869      31360.601    
    887000   617.75894     -9534.1969      1213.328       31339.8      
    888000   620.77232     -9542.2312      5675.2572      31279.506    
    889000   636.73608     -9539.474      -567.39258      31347.528    
    890000   613.92987     -9536.1083     -319.9559       31385.73     
    891000   624.52063     -9538.374       1709.458       31364.762    
    892000   627.82033     -9541.3619      133.04889      31381.823    
    893000   626.01666     -9534.5068     -2224.5937      31423.551    
    894000   619.00083     -9539.9461     -1419.6695      31375.504    
    895000   642.33429     -9535.6508     -932.33111      31404.062    
    896000   612.55884     -9534.9214     -2998.2487      31402.53     
    897000   626.85127     -9538.5604     -1553.6663      31408.246    
    898000   599.71427     -9543.9737      2568.5626      31290.502    
    899000   630.0694      -9539.1245      572.41595      31316.129    
    900000   622.08641     -9537.5591      255.43484      31334.453    
    901000   615.51836     -9540.8231     -2995.7856      31404.589    
    902000   630.76348     -9535.9361     -852.12064      31362.424    
    903000   619.2418      -9538.0154      2184.3746      31346.472    
    904000   623.86814     -9539.84        3349.8457      31298.179    
    905000   640.50682     -9538.6355      1984.7453      31321.671    
    906000   614.8811      -9542.5721      254.33593      31407.926    
    907000   627.82219     -9538.2516     -4858.9285      31446.201    
    908000   625.30336     -9543.2423      777.63043      31354.158    
    909000   618.13132     -9543.1989     -24.879203      31365.594    
    910000   632.05673     -9538.5571     -2496.126       31424.652    
    911000   607.62767     -9543.9571      3364.656       31305.126    
    912000   621.63144     -9545.0009      1214.2362      31311.445    
    913000   635.58801     -9533.5681      1215.6346      31367.286    
    914000   620.33341     -9537.05       -3127.0024      31442.427    
    915000   627.71848     -9544.5898     -1331.4864      31405.95     
    916000   635.45155     -9545.1268     -544.92029      31416.884    
    917000   625.30884     -9544.5678      1748.7702      31287.047    
    918000   635.27305     -9542.3713     -705.03603      31385.042    
    919000   626.74849     -9540.7011      773.97262      31313.032    
    920000   620.09732     -9544.1562      2289.7006      31297.013    
    921000   623.87716     -9541.6827      885.03063      31332.689    
    922000   634.92097     -9540.7203      1999.4955      31310.212    
    923000   613.45126     -9544.276      -2759.5965      31365.182    
    924000   634.78892     -9539.6044     -135.46173      31332.595    
    925000   622.61617     -9543.2         825.58669      31342.576    
    926000   624.70369     -9543.9352      965.87448      31285.297    
    927000   628.64201     -9541.3751     -1090.3235      31375.004    
    928000   601.22887     -9544.3865      1321.3805      31310.501    
    929000   632.11729     -9544.2521     -1368.1819      31357.454    
    930000   625.14706     -9539.7414     -918.33314      31357.015    
    931000   618.40582     -9543.9179     -3982.484       31402.464    
    932000   629.26769     -9543.4097     -3621.4524      31412.696    
    933000   611.48912     -9545.541       240.49693      31348.992    
    934000   611.48034     -9541.67       -928.03788      31377.036    
    935000   619.60447     -9545.243       203.78447      31357.223    
    936000   643.03196     -9542.7965     -1700.8505      31372.104    
    937000   605.00373     -9537.9787      516.43721      31355.73     
    938000   606.49945     -9544.1761      3401.8036      31290.872    
    939000   613.05605     -9539.7367     -2327.0212      31401.666    
    940000   618.86023     -9549.883       166.09748      31322.715    
    941000   631.99871     -9540.6525     -1300.5265      31384.161    
    942000   628.62709     -9548.463      -1468.6589      31359.015    
    943000   622.02563     -9540.9787     -2099.1834      31403.781    
    944000   618.93035     -9544.4451     -2504.2151      31376.267    
    945000   631.82144     -9542.2654     -2184.3112      31385.864    
    946000   614.92106     -9542.4825     -1665.2722      31375.686    
    947000   616.66549     -9543.1801     -3211.5473      31428.718    
    948000   627.44886     -9540.87       -4196.4273      31449.713    
    949000   613.7616      -9545.5457      669.27526      31327.02     
    950000   632.68627     -9542.6595      1396.3878      31324.586    
    951000   595.84218     -9541.2504     -2001.6516      31373.898    
    952000   622.02908     -9537.8969     -4469.5644      31400.477    
    953000   639.27838     -9542.7305      1404.5488      31341.398    
    954000   621.03697     -9546.2793     -396.18298      31339.582    
    955000   617.22561     -9540.612      -669.98459      31338.845    
    956000   592.84055     -9547.8102     -3709.4679      31410.438    
    957000   622.91426     -9536.7285      903.14924      31366.655    
    958000   617.32995     -9543.3575     -4650.8654      31433.4      
    959000   638.65241     -9536.5285     -3031.174       31407.037    
    960000   637.9315      -9543.6574      2725.9658      31300.917    
    961000   612.32388     -9543.5988      3580.4991      31237.917    
    962000   625.17574     -9542.9923      3406.911       31259.687    
    963000   635.83913     -9538.5823      130.78014      31346.049    
    964000   608.72167     -9541.9873     -3168.1971      31380.182    
    965000   602.29964     -9545.1457     -2215.3967      31401.514    
    966000   638.13992     -9546.7279      1636.3366      31310.162    
    967000   627.7804      -9539.6245      1712.8088      31337.493    
    968000   622.99079     -9546.4921     -146.74318      31314.698    
    969000   618.12781     -9545.3262     -2193.2039      31342.843    
    970000   633.40524     -9549.0842     -4713.9691      31419.833    
    971000   622.13452     -9546.1109     -3078.8016      31368.274    
    972000   625.06115     -9542.9463     -1223.6453      31357.846    
    973000   608.59723     -9545.8127      4.2782915      31318.154    
    974000   632.95143     -9546.7781     -1857.5297      31343.221    
    975000   639.06411     -9540.5799     -1963.5497      31369.236    
    976000   610.72619     -9542.752      -3569.0607      31352.436    
    977000   629.02166     -9544.1768     -1377.6881      31401.569    
    978000   637.80698     -9548.5631     -514.21999      31327.475    
    979000   633.54742     -9547.649      -1331.834       31321.836    
    980000   638.24585     -9542.5506      2328.6177      31305.543    
    981000   600.78477     -9544.9612     -62.848493      31336.516    
    982000   638.23937     -9541.0871      1630.7718      31320.116    
    983000   629.0562      -9544.9539      1501.5609      31279.917    
    984000   636.54794     -9547.0712      1633.5197      31306.082    
    985000   627.31717     -9542.8613     -746.65594      31327.037    
    986000   614.29089     -9541.5646      3043.7122      31305.275    
    987000   618.90656     -9545.7064      4071.4613      31288.735    
    988000   635.44319     -9544.0757      3331.2624      31268.759    
    989000   616.92215     -9551.671      -158.52309      31312.303    
    990000   624.68084     -9542.8218     -394.56772      31357.761    
    991000   596.14697     -9551.017       571.21894      31304.027    
    992000   630.43323     -9551.0127     -124.78699      31304.733    
    993000   632.90713     -9544.6557     -1370.4172      31328.225    
    994000   610.9037      -9548.4913     -744.1185       31296.639    
    995000   631.0476      -9546.5284      651.13621      31338.564    
    996000   607.20981     -9546.5434      222.59557      31347.481    
    997000   647.14986     -9540.5659     -359.09406      31368.375    
    998000   633.39466     -9549.0044     -478.59145      31364.075    
    999000   611.18811     -9538.9873      459.91149      31347.916    
   1000000   628.45262     -9542.5355      1290.911       31291.4      
   1001000   615.12576     -9542.4593     -3256.6626      31411.297    
   1002000   617.36457     -9545.9886     -482.00916      31375.407    
   1003000   626.87505     -9544.0209      1197.9877      31339.936    
   1004000   600.57764     -9545.3796      2444.4713      31270.003    
   1005000   622.01041     -9546.1086     -346.88142      31335.559    
   1006000   607.23818     -9547.6947     -343.93477      31344.833    
   1007000   622.28083     -9543.5688      922.3646       31338.387    
   1008000   606.51537     -9547.9383     -5266.2511      31427.14     
   1009000   627.88825     -9546.6524      3998.8157      31254.306    
   1010000   642.49042     -9539.6814      5971.2425      31274.879    
   1011000   622.23807     -9545.845      -1520.8767      31368.194    
   1012000   622.20227     -9545.5869      1851.5085      31343.214    
   1013000   621.44757     -9548.7613      214.0763       31363.953    
   1014000   658.23707     -9541.1372      1634.9482      31367.34     
   1015000   631.74748     -9547.4364     -1665.7453      31384.807    
   1016000   627.73589     -9545.4766      1753.6723      31330.843    
   1017000   609.41513     -9547.0343      2773.5304      31289.153    
   1018000   633.25163     -9546.2129     -1754.42        31395.513    
   1019000   620.22521     -9548.9143      2780.8869      31306.073    
   1020000   615.92046     -9541.7535     -698.79423      31331.748    
   1021000   627.45057     -9549.0764      2746.2089      31324.212    
   1022000   617.45268     -9541.3889     -3428.252       31445.732    
   1023000   601.72951     -9545.2008     -1345.2681      31370.205    
   1024000   646.23531     -9543.7328      2767.6658      31344.8      
   1025000   633.43139     -9544.3453      4348.0139      31326.12     
   1026000   599.7608      -9547.2134     -541.44006      31360.577    
   1027000   637.07968     -9548.7234      2302.7182      31317.557    
   1028000   617.25219     -9543.8742      3884.3042      31279.576    
   1029000   640.40767     -9545.1989     -1941.7112      31363.971    
   1030000   615.85871     -9548.5146     -1047.2109      31341.429    
   1031000   610.03739     -9547.3278     -4953.8501      31452.227    
   1032000   637.03262     -9549.6528     -586.10381      31353.51     
   1033000   617.04073     -9544.4        -137.27733      31363.873    
   1034000   632.6386      -9546.5234      139.61212      31345.456    
   1035000   623.60224     -9547.0376      538.20336      31320.518    
   1036000   647.84846     -9546.2103      418.95271      31351.802    
   1037000   635.11272     -9545.6016     -500.30757      31358.987    
   1038000   619.43752     -9548.6514     -1140.8376      31325.709    
   1039000   609.85084     -9549.5004     -4637.4754      31422.492    
   1040000   636.62181     -9545.6087      2110.3396      31300.394    
   1041000   617.45528     -9547.8197     -3333.4731      31378.786    
   1042000   638.40037     -9543.6434      1164.2019      31350.589    
   1043000   618.3424      -9542.4957     -2182.4273      31411.365    
   1044000   616.78736     -9550.1533     -3038.2443      31430.417    
   1045000   620.65672     -9544.7464     -2073.4439      31417.813    
   1046000   626.76022     -9544.4132      1501.8299      31328.687    
   1047000   631.55904     -9544.2316      1969.5607      31285.481    
   1048000   625.69347     -9548.2361      3606.1456      31276.985    
   1049000   626.03061     -9546.9779      423.69811      31374.776    
   1050000   600.94383     -9553.2618      2162.8659      31259.379    
   1051000   647.04211     -9547.032       372.97828      31343.922    
   1052000   630.63303     -9541.494      -737.43853      31385.059    
   1053000   628.67487     -9543.8952      4161.4992      31261.753    
   1054000   642.12634     -9545.8466     -667.39935      31330.993    
   1055000   616.98267     -9545.4671     -1520.6894      31367.383    
   1056000   640.22579     -9543.9312      2307.3083      31298.503    
   1057000   610.58003     -9544.5491     -174.07968      31323.166    
   1058000   625.28242     -9546.3811     -1134.0105      31392.415    
   1059000   617.89758     -9544.332      -3530.9957      31393.653    
   1060000   615.5118      -9542.1528      4851.4696      31273.599    
   1061000   619.34215     -9548.081      -297.52092      31337.77     
   1062000   615.59079     -9540.3002      3849.6819      31339.686    
   1063000   624.65083     -9549.8221     -1988.2402      31352.571    
   1064000   617.30302     -9540.364      -116.13952      31354.947    
   1065000   615.70809     -9548.2161     -1842.566       31373.118    
   1066000   625.1458      -9545.6733      1861.4615      31316.495    
   1067000   618.51424     -9549.633      -4581.3642      31391.789    
   1068000   631.76786     -9546.3189      2857.7515      31336.1      
   1069000   594.84304     -9544.7242     -1144.7711      31350.713    
   1070000   633.20457     -9546.4849     -4622.6246      31424.517    
   1071000   623.84372     -9544.6176     -408.64001      31408.372    
   1072000   632.45439     -9548.1392      679.82392      31302.904    
   1073000   636.22664     -9548.2514     -2155.4573      31342.296    
   1074000   621.57496     -9549.4763     -4162.4332      31357.872    
   1075000   636.16723     -9541.6326      2839.5552      31288.857    
   1076000   634.89993     -9548.204       927.90462      31308.213    
   1077000   630.74385     -9546.0548      1296.8006      31324.139    
   1078000   624.10002     -9542.7285      2255.2414      31351.358    
   1079000   630.0015      -9547.2046     -1835.814       31377.553    
   1080000   628.01223     -9546.4809      1022.0208      31314.011    
   1081000   632.48069     -9553.8272     -2595.6173      31334.043    
   1082000   623.87436     -9540.8515     -2862.1004      31425.426    
   1083000   610.14071     -9552.6292      196.30989      31389.633    
   1084000   626.66448     -9548.2261     -1433.1353      31358.373    
   1085000   624.24018     -9544.5129      2273.9306      31316.13     
   1086000   614.00161     -9544.3971      1779.4712      31323.066    
[...]
  17741000   634.9034      -9731.7211      5742.1398      30850.863    
  17742000   617.72399     -9737.6174      1087.0025      30932.008    
  17743000   610.30814     -9733.8729      981.70239      30948.115    
  17744000   633.86722     -9731.6563     -819.76255      30976.459    
  17745000   614.34922     -9740.9284      246.05344      30920.877    
  17746000   621.28979     -9736.2442     -834.01602      30981.303    
  17747000   611.75893     -9736.4198     -611.89195      30969.352    
  17748000   622.89975     -9743.5563     -866.09812      30947.797    
  17749000   613.75791     -9734.8616     -3765.8122      31032.971    
  17750000   600.13281     -9734.067       289.13044      30963.009    
  17751000   630.10409     -9742.1668     -1804.664       30976.478    
  17752000   612.6262      -9734.5941      1148.2755      30937.146    
  17753000   623.23423     -9745.5307     -1157.0359      30964.515    
  17754000   611.38252     -9732.6482      451.75297      30960.468    
  17755000   599.12112     -9735.0615     -1379.5788      30965.116    
  17756000   634.91419     -9738.1683      3739.5266      30882.384    
  17757000   623.79955     -9734.2818     -24.571946      30967.767    
  17758000   637.55943     -9740.0052     -651.9305       30950.545    
  17759000   616.65909     -9734.759      -1172.3702      30976.664    
  17760000   599.42837     -9737.1489      4009.5332      30919.919    
  17761000   633.72192     -9734.5872      866.84281      30943.681    
  17762000   619.86751     -9733.7406     -4561.8534      31069.574    
  17763000   639.07057     -9738.9282     -4650.1914      31017.242    
  17764000   610.84151     -9738.2647      4079.3496      30906.871    
  17765000   626.19636     -9731.8064      1100.6294      30957.73     
  17766000   612.29617     -9734.8075     -1257.496       31011.787    
  17767000   636.78607     -9734.1163      4185.2203      30924.3      
  17768000   614.64189     -9737.3057     -6082.0605      31018.859    
  17769000   632.05688     -9736.7356     -3313.0371      31009.197    
  17770000   605.16243     -9741.2588     -2752.5086      30982.561    
  17771000   608.24821     -9737.5324      557.92902      30941.612    
  17772000   613.53616     -9733.7874      2423.5359      30914.189    
  17773000   604.93325     -9736.4971      4199.3383      30922.992    
  17774000   626.10177     -9736.4889     -1745.7528      30951.547    
  17775000   609.05566     -9739.5672     -1596.4656      30992.661    
  17776000   627.85843     -9740.005      -569.42733      30944.89     
  17777000   620.18504     -9737.3252      768.78296      30932.734    
  17778000   632.3184      -9737.3291      3697.0655      30892.509    
  17779000   618.70201     -9738.2192     -4120.5448      31001.068    
  17780000   636.72834     -9736.6444     -5069.7769      31052.516    
  17781000   620.27907     -9731.4295      1031.179       30953.201    
  17782000   622.78703     -9737.6713     -394.75791      30960.048    
  17783000   613.78176     -9741.2577      3030.5381      30919.852    
  17784000   620.22055     -9736.7269     -1757.5064      30976.693    
  17785000   614.7545      -9737.2263     -3521.7235      31028.131    
  17786000   604.45528     -9736.7536     -4584.7468      31036.896    
  17787000   619.37603     -9734.8849      293.16073      30952.402    
  17788000   626.16198     -9739.4544      1766.8343      30938.178    
  17789000   622.50275     -9731.4524      772.97671      30925.078    
  17790000   602.92056     -9735.9006     -5911.5463      31044.081    
  17791000   636.03043     -9734.9727     -2124.8839      31027.874    
  17792000   629.46734     -9735.468      -117.34175      30968.016    
  17793000   606.7299      -9737.0724     -829.2118       30977.899    
  17794000   616.50425     -9734.1455     -5389.237       31015.188    
  17795000   611.75446     -9742.9426     -1737.2816      30975.272    
  17796000   606.41676     -9732.3939     -2688.0494      30982.92     
  17797000   611.50383     -9741.4615     -2447.025       30971.927    
  17798000   630.29658     -9736.2285     -1040.5224      31007.018    
  17799000   624.32928     -9743.3507      1938.7475      30903.001    
  17800000   620.6711      -9732.3402     -1132.6981      30953.938    
  17801000   630.5743      -9736.3002     -4402.8554      31020.361    
  17802000   613.75971     -9740.3543      1208.4833      30937.399    
  17803000   653.80879     -9735.7282     -1891.632       30991.814    
  17804000   624.86602     -9738.3431      2299.3021      30920.853    
  17805000   654.86646     -9736.1611      610.86302      30978.627    
  17806000   608.9028      -9736.4296     -888.56678      30962.16     
  17807000   614.74514     -9741.3804     -3833.0138      30999.842    
  17808000   618.93761     -9739.8593     -2946.2427      30956.816    
  17809000   633.12353     -9732.8432     -3314.0889      30990.686    
  17810000   620.40478     -9737.964      -2035.1697      30998.158    
  17811000   608.10605     -9738.8419     -845.40496      30935.412    
  17812000   630.24039     -9737.4426      330.92744      30941.172    
  17813000   613.67282     -9737.8099     -1273.3542      30983.344    
  17814000   607.2648      -9733.6722     -2220.4355      31025.213    
  17815000   621.62837     -9739.7189      3744.5844      30922.567    
  17816000   643.70603     -9740.0402      2444.3291      30882.323    
  17817000   620.87296     -9732.8805     -906.23421      31024.278    
  17818000   613.57982     -9738.5537      1559.0052      30942.811    
  17819000   616.12499     -9741.4805      504.44763      30996.761    
  17820000   636.91249     -9739.1353     -4052.6724      31014.807    
  17821000   623.68768     -9740.2833     -896.80687      30944.035    
  17822000   644.17153     -9739.921       2661.7922      30931.661    
  17823000   594.45601     -9739.4712      1741.1069      30903.04     
  17824000   623.2547      -9735.2558     -293.42665      30905.38     
  17825000   610.31054     -9742.5073      94.922543      30925.576    
  17826000   618.11137     -9734.6254      1143.9082      30909.31     
  17827000   603.58077     -9737.7536     -578.89958      30920.119    
  17828000   629.43138     -9736.1482      304.31011      30925.595    
  17829000   630.98409     -9733.2614      1873.7073      30953.115    
  17830000   620.9358      -9737.7937     -93.037304      30918.664    
  17831000   643.89061     -9735.3861     -5282.7497      31022.049    
  17832000   641.38223     -9742.5724     -2356.6369      30959.678    
  17833000   635.77211     -9734.8932      565.18284      30918.38     
  17834000   615.63139     -9740.0641     -637.55054      30948.95     
  17835000   612.30033     -9734.6372      39.680848      30947.415    
  17836000   602.53577     -9735.3476     -3402.1873      30986.36     
  17837000   626.07648     -9740.269       754.83477      30934.497    
  17838000   665.27154     -9739.7361      1390.7071      30915.006    
  17839000   616.49741     -9737.6107      1167.9094      30957.136    
  17840000   608.78633     -9742.2528      1545.0472      30937.078    
  17841000   606.37853     -9738.119       1562.0802      30938.192    
  17842000   607.64403     -9736.3478      466.62133      30922.984    
  17843000   624.75182     -9734.6486      1198.4472      30953.808    
  17844000   615.94512     -9739.368      -1324.0292      31012.155    
  17845000   627.80833     -9736.874      -1030.6173      30993.421    
  17846000   634.35734     -9740.9696      3504.7732      30912.97     
  17847000   635.10381     -9740.2438      6674.0785      30864.044    
  17848000   626.1084      -9738.1133      1439.3563      30937.621    
  17849000   643.84761     -9737.891      -2001.9346      31010.329    
  17850000   599.44551     -9734.2661     -922.41642      30957.171    
  17851000   629.53034     -9738.2327      57.005684      30948.398    
  17852000   629.87027     -9743.1137      1468.3242      30922.389    
  17853000   645.50242     -9739.0095      3180.9373      30875.778    
  17854000   604.0341      -9741.2336      893.39058      30901.316    
  17855000   622.61795     -9736.3705      1600.7623      30942.61     
  17856000   615.27877     -9741.8067      2066.0095      30914.121    
  17857000   625.96794     -9736.9775      405.15114      30966.732    
  17858000   614.68582     -9734.9224     -4198.2027      31046.294    
  17859000   616.48857     -9748.3519      1977.2813      30857.694    
  17860000   623.01393     -9738.3608      3776.8206      30917.707    
  17861000   607.59473     -9737.4105     -2890.7334      31000.733    
  17862000   641.41852     -9737.5472     -23.470801      30953.223    
  17863000   612.50174     -9735.7741     -1466.3361      30970.413    
  17864000   627.13703     -9737.6153     -2638.4925      30953.82     
  17865000   639.02686     -9738.9344     -3787.4993      30979.146    
  17866000   623.93534     -9737.2361      964.445        30927.833    
  17867000   614.9583      -9739.8091      4862.9816      30846.065    
  17868000   637.86314     -9736.06       -2003.8507      30969.837    
  17869000   631.13541     -9736.692      -2067.7426      31004.605    
  17870000   620.368       -9734.0358      4646.6983      30864.325    
  17871000   614.24234     -9739.3451      1905.0236      30906.696    
  17872000   622.92096     -9737.209       345.58329      30977.408    
  17873000   627.55251     -9737.7453      5102.7776      30855.936    
  17874000   611.56288     -9738.6094     -1663.2781      30965.191    
  17875000   630.11072     -9736.3418     -2418.7199      31002.632    
  17876000   621.2246      -9739.6322      604.36187      30947.494    
  17877000   601.41312     -9731.8998      279.57863      30969.923    
  17878000   607.72365     -9741.5631      3300.2974      30875.264    
  17879000   635.42233     -9739.9053     -2106.4406      30978.7      
  17880000   624.38953     -9738.9538     -1015.7006      30990.001    
  17881000   621.94024     -9734.324       3144.3435      30894.151    
  17882000   612.5102      -9737.0204     -4542.0071      31023.138    
  17883000   621.5302      -9736.917       977.80034      30927.053    
  17884000   608.65191     -9740.0169     -1130.9492      30950.205    
  17885000   623.11998     -9735.1879      4578.2339      30913.054    
  17886000   626.11457     -9733.0144      1509.2681      30913.208    
  17887000   617.20936     -9732.8747     -3702.5608      31002.633    
  17888000   638.18281     -9740.3633      698.83694      30920.122    
  17889000   630.60667     -9736.5202     -3788.458       31024.856    
  17890000   623.32209     -9734.0846     -5479.4133      31016.062    
  17891000   605.55482     -9737.3451      1218.0489      30935.007    
  17892000   614.62163     -9736.0659     -2567.9507      30977.634    
  17893000   635.8695      -9736.3971      586.26167      30932.308    
  17894000   626.19635     -9739.4532      4463.8826      30868.442    
  17895000   629.37043     -9735.3419      378.70488      30947.873    
  17896000   623.08118     -9737.6376     -121.97574      30918.751    
  17897000   618.37128     -9736.6616      3976.4528      30870.764    
  17898000   604.3405      -9735.8642     -3504.1932      30994.806    
  17899000   622.13725     -9735.3321      3188.2416      30899.045    
  17900000   651.56658     -9735.2141     -993.46294      31019.409    
  17901000   611.39961     -9738.5516     -7057.2515      31013.239    
  17902000   620.83554     -9741.6879     -1783.32        30979.846    
  17903000   634.51242     -9738.5955      1321.8909      30883.926    
  17904000   607.6683      -9736.9513     -1536.992       30994.361    
  17905000   620.05542     -9734.6259      45.284494      30938.035    
  17906000   619.798       -9737.1271      214.6947       30954.276    
  17907000   611.44966     -9740.6299     -384.32991      30916.354    
  17908000   626.43252     -9739.2124      4128.7996      30872.312    
  17909000   642.75709     -9732.3317     -3008.7644      31016.699    
  17910000   618.3367      -9740.2348     -2795.613       30969.982    
  17911000   635.97586     -9736.4743     -4869.8107      31036.561    
  17912000   614.65237     -9735.2638     -2512.1497      30942.875    
  17913000   645.13912     -9737.2286     -2507.2887      30997.869    
  17914000   615.64602     -9738.5213      332.00031      30955.191    
  17915000   613.45606     -9737.4388      551.27793      30942.672    
  17916000   628.9799      -9736.8177     -1694.0399      30976.692    
  17917000   614.56216     -9739.8491      2210.5952      30898.918    
  17918000   625.6524      -9736.8834      2137.4041      30896.918    
  17919000   642.07931     -9740.538      -1014.5152      30937.545    
  17920000   640.62718     -9733.5619     -281.87943      30976.618    
  17921000   615.85575     -9738.6372      3015.1019      30858.73     
  17922000   614.60382     -9742.9889      2650.3723      30874.823    
  17923000   641.87617     -9736.8721     -1406.8782      30960.869    
  17924000   628.33495     -9740.549      -3574.2946      31014.406    
  17925000   611.26036     -9736.6227     -2683.1563      31017.35     
  17926000   624.26781     -9734.15       -253.96235      30972.011    
  17927000   622.80955     -9740.3182     -2878.897       30984.906    
  17928000   617.09412     -9735.3717      889.80422      30927.527    
  17929000   623.49414     -9737.9113      1841.2476      30907.696    
  17930000   631.71606     -9737.3643      1442.3025      30931.533    
  17931000   635.49926     -9739.503      -2205.2585      30977.12     
  17932000   640.03058     -9738.6535      1951.9754      30916.151    
  17933000   606.34496     -9738.2818      510.33328      30953.782    
  17934000   641.38467     -9740.2979      1415.8941      30919.858    
  17935000   617.39638     -9740.6947     -3804.0833      31009.308    
  17936000   635.08719     -9738.7183     -1043.2736      30945.88     
  17937000   628.50555     -9737.7945      3862.878       30910.161    
  17938000   612.25703     -9737.613      -144.82215      30933.652    
  17939000   632.90761     -9736.775      -1800.1921      30984.969    
  17940000   622.41713     -9740.0494      744.9371       30936.182    
  17941000   640.89088     -9740.7279     -1411.5284      31022.597    
  17942000   642.38208     -9734.3766     -131.5853       30975.647    
  17943000   624.96731     -9736.7937      1933.7386      30913.941    
  17944000   603.3827      -9739.8511     -1116.5853      30955.949    
  17945000   607.04478     -9736.6127      3722.6939      30895.741    
  17946000   630.17685     -9732.4188      1992.9001      30922.261    
  17947000   619.74569     -9734.5008      33.4815        30964.07     
  17948000   595.20173     -9740.2448      2712.5782      30911.797    
  17949000   621.14746     -9736.54        1832.6045      30926.165    
  17950000   605.87443     -9739.6831     -2252.1363      30936.958    
  17951000   623.69446     -9736.9994      2298.728       30904.684    
  17952000   626.65854     -9736.126      -1879.6672      30983.979    
  17953000   627.78063     -9739.0079     -1942.9584      30978.255    
  17954000   627.23909     -9734.3512      4001.1515      30889.235    
  17955000   642.04181     -9733.3918      703.96826      30934.752    
  17956000   636.00176     -9736.1557     -386.52243      30966.558    
  17957000   624.04177     -9742.8529     -318.46168      30913.013    
  17958000   631.84001     -9742.5013      550.97726      30942.688    
  17959000   617.67445     -9733.0262      2146.8746      30964.143    
  17960000   596.08418     -9740.207      -2600.2155      31018.859    
  17961000   635.01197     -9738.8814     -4521.4954      31054.097    
  17962000   621.48538     -9743.1607      82.858189      30948.703    
  17963000   630.5991      -9738.5014     -603.14453      30954.744    
  17964000   627.60754     -9739.65       -1639.3839      30959.306    
  17965000   617.77682     -9740.7593     -952.80052      30968.69     
  17966000   642.70412     -9740.4853     -5108.6224      31069.138    
  17967000   621.82634     -9744.118      -2143.183       31001.511    
  17968000   625.71602     -9737.8403      1194.1243      30938.88     
  17969000   618.48207     -9735.3108      2431.8648      30938.856    
  17970000   612.24038     -9739.3386     -5707.9918      31071.043    
  17971000   630.08953     -9732.9222     -514.14319      30965.208    
  17972000   615.8787      -9737.9003      1989.2901      30946.869    
  17973000   632.83331     -9737.7834      726.99252      30957.485    
  17974000   613.77667     -9739.5975      5143.8241      30830.788    
  17975000   628.23098     -9741.6712      2681.394       30907.316    
  17976000   628.00991     -9742.1642      2601.8397      30898.679    
  17977000   625.65021     -9738.3278     -208.78513      30984.754    
  17978000   622.85357     -9736.9863     -1057.1172      30942.224    
  17979000   633.39364     -9733.5675      2141.3857      30950.074    
  17980000   626.7103      -9738.3594      1659.6249      30964.602    
  17981000   631.99961     -9737.1805      323.68947      30975.835    
  17982000   616.09698     -9739.1892     -1706.9007      30972.959    
  17983000   610.28736     -9737.185       1141.3912      30931.403    
  17984000   641.4887      -9730.3689      3878.6479      30888.634    
  17985000   618.99108     -9735.5435      1185.6984      30923.759    
  17986000   611.71734     -9739.6343     -390.44067      30919.704    
  17987000   606.74431     -9737.4147      4983.2845      30858.814    
  17988000   636.66655     -9739.074       2134.5563      30887.157    
  17989000   617.28299     -9736.5993     -3584.5848      31016.492    
  17990000   627.7256      -9733.9925      4098.894       30892.528    
  17991000   633.02014     -9737.1604      281.10109      30967.593    
  17992000   618.4864      -9738.1986      939.33435      30937.382    
  17993000   635.1566      -9740.2813     -3944.5356      31015.526    
  17994000   611.21206     -9740.5452     -57.54657       30931.042    
  17995000   616.60539     -9735.0723     -1402.9803      30957.739    
  17996000   607.07179     -9741.1359     -92.369063      30881.481    
  17997000   607.65853     -9739.5948      5195.2653      30871.413    
  17998000   630.51371     -9737.6349      2613.7953      30927.876    
  17999000   604.60762     -9736.191       1385.1276      30927.21     
  18000000   619.37255     -9736.0934     -1442.9839      30947.31     
Loop time of 214130 on 16 procs for 18000000 steps with 1810 atoms

Performance: 7.263 ns/day, 3.304 hours/ns, 84.061 timesteps/s, 152.150 katom-step/s
100.0% CPU use with 4 MPI tasks x 4 OpenMP threads

MPI task timing breakdown:
Section |  min time  |  avg time  |  max time  |%varavg| %total
---------------------------------------------------------------
Pair    | 1.3883e+05 | 1.7319e+05 | 2.1316e+05 |8309.9 | 80.88
Neigh   | 110.27     | 113.9      | 118.01     |  30.8 |  0.05
Comm    | 465.1      | 40439      | 74803      |17198.3 | 18.89
Output  | 2.794      | 3.5022     | 5.4984     |  61.6 |  0.00
Modify  | 334.56     | 337.07     | 338.7      |   9.1 |  0.16
Other   |            | 48.81      |            |       |  0.02

Nlocal:          452.5 ave         461 max         443 min
Histogram: 1 0 0 1 0 0 0 1 0 1
Nghost:        1480.25 ave        1518 max        1444 min
Histogram: 1 1 0 0 0 0 0 0 1 1
Neighs:              0 ave           0 max           0 min
Histogram: 4 0 0 0 0 0 0 0 0 0
FullNghs:      22983.5 ave       24258 max       21571 min
Histogram: 1 1 0 0 0 0 0 0 0 2

Total # of neighbors = 91934
Ave neighs/atom = 50.792265
Neighbor list builds = 93270
Dangerous builds = 0

undump          1
unfix           1
Total wall time: 59:28:50
