LAMMPS data file via write_data, version 22 Jul 2025, timestep = 30000, units = real

576 atoms
2 atom types

-12.029946829889338 32.615524541486295 xlo xhi
2.31731098440107 18.26826672719133 ylo yhi
1.3778865577175097 19.207691153876656 zlo zhi

Atom Type Labels

1 Si
2 O

Masses

1 28.0855
2 15.9994

Atoms # full

290 33 1 1.896790317332586 -5.8336339253788685 5.671361211606163 5.007809080068199 0 2 -1
488 55 1 2.136745402718174 -5.753900192956889 5.47051227236452 8.018755262014848 1 1 -1
210 24 1 1.953343507141013 -5.885984712115683 8.322191403681018 9.110579883481659 1 -1 -5
536 60 2 -0.8887742406308011 -6.495995474193496 4.3028146773598 4.394638358312799 1 4 2
404 45 2 -0.9368896059683925 -6.82603067534798 6.960496524447742 5.003401601383636 6 -3 4
330 37 2 -0.8729768283113924 -6.966051911831215 9.80557406972791 4.565453887060768 -2 2 -7
159 18 2 -1.021720485090437 -7.437158871831381 8.269328960172402 9.463920499140732 2 2 -14
198 22 2 -0.9410244701265673 -7.848794147208971 8.087455485077834 2.9267235494419594 6 -3 0
61 7 2 -1.089595787912049 -7.287011818902732 5.309367873441756 8.369685137054987 -6 4 -1
507 57 1 1.806346404069993 -7.597905614656135 8.32412651124999 4.499789976085923 -3 -5 6
126 14 2 -1.000845458542985 -8.817422267142845 3.447708478804073 4.4601089429740375 -4 6 4
302 34 2 -0.9456627296471311 -9.87859295225746 8.800275644022317 9.05028897060761 -2 -3 5
374 42 2 -0.8853171175658375 -9.062623825227575 8.352960659518251 5.235698311377259 -2 0 -6
4 1 2 -0.9729561766619336 -9.142680293956776 4.087176701746647 6.894355533123392 1 -2 5
36 4 2 -0.9395570155445612 -9.04325220444236 3.9301145671383524 9.4823701293807 3 2 2
137 16 1 2.046237774858278 -8.774362553315438 4.93586061495917 8.227904020480448 2 2 -1
120 14 1 1.874340448963205 -7.375209145486505 3.0061199890291466 3.915999094129305 -4 5 -5
260 29 2 -1.057257865656975 -9.682254278614062 6.210246109503635 8.352509284682963 -1 -1 2
425 48 1 1.963745685377478 -9.90224895612329 3.696103942930869 5.510280000214169 -5 3 -1
332 37 2 -0.8972804057317172 -7.519441265191597 2.9083801216576006 2.3059811505423227 -2 0 -2
354 40 1 1.685997890235672 -10.490858561833392 8.979533810143915 5.68909820354038 0 4 -1
242 27 2 -0.7931054370287118 -11.198309995318555 6.346215498463402 3.0293665376182144 -3 0 3
110 13 1 1.847495095100659 -10.61360638614308 7.458991266036044 8.412040403559427 2 3 -5
436 49 2 -0.7920755404495713 -11.103671667627983 8.076569393787343 6.894645145611523 -2 -3 11
64 8 1 1.542683344279466 -7.587141726969993 7.1833932247856245 1.6846640339866281 6 -5 -7
187 21 2 -0.9307897717789198 -6.324739765964802 6.216707389411589 1.6966950057981427 0 1 4
48 6 1 1.443739223513881 -10.58306260678707 6.651221134911101 1.647622670151424 -1 7 1
268 30 2 -0.9597993155491873 -10.996365533272371 4.641902057944 4.9421604491341355 5 2 4
179 20 2 -0.9425002376332289 -11.552842500471202 3.744845453249176 2.3803957024728035 2 1 -5
574 64 2 -0.4623404836209794 -11.474273228840543 8.95993828803637 4.373177397301816 2 -1 0
542 61 1 1.94423471064457 -8.711876229101685 8.930971889195776 10.127506507148754 0 -1 -1
146 17 1 1.669415437849755 -11.77616083017807 4.815555924106267 3.5708071319046937 3 1 -7
214 24 2 -0.8940627980272307 -11.933675470903609 7.0123722903869155 9.143042721380912 8 -1 6
538 60 2 -0.8478649952894697 -9.022518327170605 6.406117022933847 1.3840324585060664 2 7 11
124 14 2 -1.047600042124105 -5.449155669001766 5.329569375561125 6.531759362134713 -3 -3 2
419 47 2 -0.9535556073157175 -5.318514194302063 6.9305829849138965 8.484222161829923 -8 -1 -1
306 34 2 -0.9583001817732604 -5.506699002452296 9.2683556469936 7.873838154898315 -2 0 0
315 35 2 -0.9129125663829697 -4.381350246552683 6.023618019284641 4.388728235306303 9 -2 0
402 45 2 -0.9559556896732625 -4.816985403780865 4.478567439436434 8.838047203823159 4 4 -3
380 43 1 2.05909215036227 -4.254578193083298 10.099014256173659 7.323482140545078 2 -5 -1
46 6 1 1.913179346886508 -3.5521768707204924 3.5376763008182404 9.247458267257453 0 -2 4
231 26 2 -0.9913281594059649 -4.036100206892606 9.935529996059836 5.736363279171042 2 1 6
366 41 2 -0.9210051106115928 -2.9176958267136524 4.25301197262636 5.524635282611948 -1 2 3
377 42 2 -0.9585327860914291 -3.7129102164517693 8.984115876614604 3.2674796833712243 -4 5 -6
75 9 1 1.845032706273725 -2.8675507910162903 5.747655577995191 4.941015993678722 -2 -3 3
118 14 1 1.910537848420605 -3.119087926024598 9.936752192253529 4.448488088475433 4 -2 -1
364 41 2 -0.9868115728612572 -2.993340520038691 9.47137517034117 8.093060413752355 -5 -5 -1
60 7 2 -0.8908560301047532 -3.79529923259636 3.03835571176225 3.3872360895889537 5 -1 -4
352 40 1 1.799558323643367 -3.1597919661907348 2.8079891648711386 4.846309773412251 -1 -9 6
300 34 1 1.773368387338937 -3.1570664630243925 3.5345662459418303 1.9246717514110696 6 -2 -6
360 40 2 -1.002846512253119 -1.8239874989377292 5.795330039243363 3.7103645064717052 1 -2 0
175 20 2 -0.9532815492540895 -2.3289037957461236 6.950390883314355 5.907702905122016 3 -4 -4
474 53 2 -0.9597157736029105 -1.6742928980120357 9.268051087395182 4.853640066624527 2 -5 -1
220 25 2 -0.9164521988939757 -2.1661263492249123 4.2711935028864625 8.80575291876301 -6 -3 4
38 5 1 1.965207844297362 -1.6526904132286937 8.776254224944491 8.592675491952324 -2 8 -4
401 45 2 -0.9448149990034935 -2.0349250588063903 7.491866656406985 9.489399730679319 -2 -1 -6
470 53 1 1.90430210694991 -1.1756867589670694 8.031402612228067 5.738577850574733 -4 4 1
408 46 1 1.93424471749678 -0.7773240911008266 5.2443711204030725 2.6575313293629375 -1 2 5
314 35 2 -0.932278520817748 -0.8323231479507562 8.46273442783345 7.235773108466399 6 1 7
201 23 1 1.821072158875247 -0.5840178322424254 4.069640719674334 8.562808743310942 -2 3 2
168 19 2 -0.9296721075606323 -0.8372812725633842 9.750114196400176 9.549652824256379 2 4 0
484 54 2 -0.8829832163414765 -0.34543154580016555 3.3156771149605113 7.08931884507308 -4 1 6
40 5 2 -0.968989868327406 0.027273810213184646 3.321611333738816 9.82373551843217 4 -1 6
476 53 2 -0.946594811026842 0.3660930254571966 5.389235753818044 8.239340628340585 1 7 0
411 46 2 -0.9508665960626657 0.1776245542925956 7.459486982876766 5.079078769208001 6 -8 -7
239 27 2 -0.8883331183798145 0.697628415832261 4.69831194352322 3.236162785271837 4 5 6
199 23 1 1.944540292568457 -3.4118679237297975 8.572529497572203 1.7579041482173807 -2 -2 -1
123 14 2 -0.9355618023538677 -1.652073164591373 4.100493312416866 1.9037147293410264 1 -2 2
50 6 2 -1.005382641141518 -0.3655765081981386 6.461444835327778 1.7361902218656966 2 2 -6
249 28 2 -0.9701301188914946 -1.752309105492083 2.3245341887070947 4.372253299329223 2 0 -4
324 36 2 -0.9175053599859504 0.5946912526890937 8.919799806203287 2.3251320406800255 2 -1 0
151 17 2 -0.9646983484468205 -1.8624011529212776 8.585945354385965 1.4934598181139997 1 -7 -3
375 42 2 -0.8960586299779542 -4.254995806872622 4.641365711322272 1.4359093092832125 3 9 3
145 17 1 1.933471099935895 -0.35575687020768143 7.999326083957698 1.380797230558461 -1 0 9
228 26 1 1.892774661721755 1.8083588293352904 10.037899771430356 2.049694811489807 5 -1 7
553 62 2 -0.9348141895785875 1.9955046157138412 6.369338635023093 6.513874213309873 -1 5 0
498 56 1 1.908984090475106 1.7600993821238742 7.3061944853583904 5.210420482295644 2 5 4
180 20 2 -0.9086350932589466 2.270300880489101 8.856628340522871 5.444395977418158 7 -1 5
278 31 2 -0.9948631413833322 1.6430441238888172 7.4106935853642195 8.900481285151558 1 7 4
236 27 1 1.983248973355713 1.772303549820906 6.012216764048793 8.068301016592223 2 1 -1
173 20 1 1.948760814863412 2.2712152825554934 4.99975184505611 3.3106693899260495 5 -7 3
256 29 2 -0.9364670466022235 2.3524964723032493 6.507994975807031 3.934491348934872 2 -1 -3
373 42 2 -0.9457240883430089 2.7743093230457365 4.807999952119413 1.8251762754524898 -3 3 0
550 62 1 1.850886826915869 3.4605582046288035 4.329672269045127 9.82907291821912 -5 1 -9
422 47 2 -1.003591913003809 3.0314241019974375 5.233107184991304 8.592579138483943 0 -1 -2
493 55 2 -0.9371189315045069 3.1719821378804056 4.016940258558334 4.21059228237157 -4 1 1
420 47 2 -0.8859216635980501 3.8428962735703944 8.530222773351907 9.52852651514736 -1 -4 2
27 3 2 -0.8988191022716179 2.962366826259837 2.8156792919002185 9.430098992721668 6 11 0
311 35 2 -0.9016937331429388 5.98351477569569 8.696827407036958 4.722718311324469 0 -6 0
57 7 1 1.888343782293186 6.327951867311169 8.14174600479448 6.222950889405056 3 5 -1
558 62 2 -0.8787221865950449 5.056702334205044 4.354394390389916 10.207923634832294 3 2 -4
131 15 2 -0.942075791916825 5.197174458688151 4.09467884251825 5.9474666945177175 4 4 1
111 13 1 1.740572049204383 4.44623388473782 9.621963085624106 8.447275406351997 0 -3 5
381 43 1 1.831928872319379 6.6340427496668415 4.335014338109814 9.638736412816353 -2 -1 -5
273 31 1 1.973591630956794 6.302922811600128 5.116876503957379 6.571662029322186 -2 -8 6
107 12 2 -0.9628582277691226 5.8313879504684305 6.599015703170723 6.271889157780458 -1 -1 -2
227 26 1 1.916711723917138 4.276350387084724 3.1301990309659193 5.030949701913027 1 2 0
35 4 2 -0.9302753687449652 5.357158035352986 9.386205042935432 2.228286199551112 5 4 2
501 56 2 -0.9021717790329202 5.5200459337831 8.964551232528885 7.390015350738985 -5 7 1
464 52 2 -0.9550316251404334 5.348370896783104 5.711579918132588 1.7792201356254702 -5 2 3
186 21 2 -0.9590273898258563 5.404960078233666 2.4114858423371355 4.096111025989483 -7 -1 -4
289 33 1 1.945693994073937 6.534385715905168 8.943325586083882 3.237482255326188 2 -4 -1
13 2 2 -0.9843048712550513 6.499718323949688 4.638393225614227 8.08505091744781 -1 -4 -2
497 56 1 1.855948777772502 6.782882727201601 6.394588190495905 1.3908622454516617 -1 3 3
446 50 2 -0.9466264470431099 6.854308134542324 7.547292087287537 2.5712537711625485 0 -1 3
559 63 1 1.954390277708398 2.3649924356182783 8.162052090122947 10.070303917424365 7 -2 1
216 24 2 -0.8502920888078588 7.375411132945379 2.8217777705845646 9.685114418863046 -6 7 -7
91 11 1 1.904346857560794 9.083510081401142 7.810323231072541 7.7016725125410845 7 3 5
370 42 1 1.824971845782728 8.730928073599346 4.375924893511156 4.862523091303566 4 0 5
382 43 2 -0.9750106208531092 7.877584790063215 8.089821129514867 6.612901500124556 -5 5 -5
112 13 2 -0.9832060535397508 8.409001947407448 7.203494445610274 9.010102712778082 -7 5 -7
320 36 2 -0.9712442305541392 7.776183195689503 3.397550055241688 3.9756201172187184 -8 -1 -5
284 32 2 -0.8933774232634384 7.970862054887265 5.31373540195768 1.638413509234596 1 0 -1
5 1 2 -0.9959204335806223 7.790136763435109 4.966953043101814 5.987838028108828 4 9 -1
477 53 2 -0.9397779523374394 7.802821786147385 9.931747729685526 3.473001596658357 2 8 3
570 64 1 1.762936185606727 9.432614726724003 5.604123042516865 2.299381464524931 -6 -4 0
162 18 2 -0.8969356253807672 9.349619394640394 5.50002085557092 3.896988202725552 1 0 -5
45 5 2 -0.9471985352350346 9.57495106991684 9.229949113011267 8.265903542482388 -2 -3 -5
43 5 2 -0.9146044001358293 9.798843394576407 7.146781829167206 1.9195130876145408 -6 3 -5
171 19 2 -0.907333335087992 10.103825172787468 3.5941338590147316 5.236980258560176 3 -2 3
170 19 2 -0.9310765816337941 10.464108032980905 7.07957742714305 7.188639246145082 -5 -7 -3
296 33 2 -0.9884551640138382 11.801922939501614 5.740043599164027 5.368763932120086 -9 -4 -4
479 54 1 1.803226100196998 11.627480456615634 4.136591233575064 5.322248371964483 0 -2 1
136 16 1 1.787688918829903 11.909683847016195 6.8086719406561365 6.4930263996990645 -4 0 2
232 26 2 -0.8380555990448763 12.094666555981322 4.455444786558846 9.343818936003586 -4 -2 0
405 45 2 -0.8493518011789414 12.693885250241506 8.157317385052778 5.946736980032074 5 -2 -3
357 40 2 -0.8027974847342997 12.978449522017362 6.053851581475606 7.491133480017235 2 4 5
487 55 1 1.689947232956228 12.906369223139217 4.45539550155898 7.934265723675868 4 6 4
104 12 2 -0.9133118925477282 12.20613674610991 3.622348989073758 6.749947314720472 0 -1 4
492 55 2 -0.9579603928564356 10.436080912759438 4.464880387082498 1.8027730252874785 4 0 -2
295 33 2 -0.8667940889246902 12.399011320032079 7.796109488084631 3.3015108342330293 -6 1 2
468 52 2 -0.884483364595105 12.495969969322038 3.619961663888471 4.060646799522598 6 -3 9
418 47 2 -0.8472855148822903 10.075321969422545 3.0644070661806353 9.366736010045525 -5 2 1
55 7 1 1.654608857645858 12.92536375355992 7.086131858052439 1.90271524584367 -2 -2 1
155 18 1 1.710987270923418 13.220406106708205 8.55418472457488 4.463427533993906 -4 -1 0
549 61 2 -0.9576387407349154 12.83924718871805 10.080420568874244 4.188372955844334 1 2 2
49 6 2 -0.8847739538045446 13.169348837112834 5.501685744595891 2.1490397899761606 1 -3 0
84 10 1 1.689266303968252 13.585982791659928 4.199951345914525 2.97094070158178 6 -3 3
59 7 2 -0.4779121494193181 14.940282382734827 4.626147419442821 3.7254151807252067 -5 -1 3
531 59 2 -0.8560328004239305 14.407272889399456 3.8325414419887958 8.065757072768939 2 4 5
509 57 2 -0.8348875651731056 14.815862927830656 8.368266982732813 4.011868882059136 -2 4 -3
417 47 1 1.614664012620932 15.489389596517023 8.686104495485234 2.5288801629666198 1 3 5
387 43 2 -0.8482392850892113 13.893282340782411 3.0594679419010653 1.8065807706376804 2 4 -9
530 59 2 -0.8243235660417549 14.41189007423103 7.871422172710992 1.6159752157528735 1 4 -6
331 37 2 -0.4668456939080446 16.973846497714142 8.103009834260186 2.4179334373520964 -3 1 -3
564 63 2 -0.8735082759008578 15.504028200438816 10.283164835249893 2.1995879595258523 -7 6 4
525 59 1 1.691586882698827 14.964561524109966 2.3293511478852764 8.058807117979288 1 -6 2
69 8 2 -0.4560120341064258 16.420204652351607 2.3841918862917173 7.36281682195774 3 1 -3
237 27 1 1.13077978294136 30.565874829161416 3.072785208814615 3.965954121230771 -8 4 4
158 18 2 -0.7816261704430347 31.309151376039594 4.503411685232948 3.9413991416736174 7 4 -4
349 39 2 -0.7351603403364698 30.94262798115107 2.386070726407293 2.489752357808153 -6 4 6
16 2 2 -0.8626510687288635 -10.78474860835182 18.255325224427967 5.647904570341787 0 6 -2
424 48 1 1.637915988113387 -12.022532897364915 18.214758241280574 2.048623518760533 -3 -9 -1
221 25 2 -0.8909793799698738 -6.420671231932455 12.434561114793048 4.445432456234574 0 -3 1
224 25 2 -0.9360310614360919 -6.090556803959101 10.65620430657738 2.2862674261733433 0 -1 0
86 10 2 -0.9145849880177688 -6.657313161910194 14.896429100558121 4.653544280480998 -7 8 2
196 22 2 -0.8997926291337592 -6.628250282990297 12.685673071806239 8.682298554381134 4 6 -1
344 39 1 1.738758603826478 -6.939467745711077 11.150876238794144 3.5524635664048154 1 0 3
116 13 2 -0.9731981766911735 -6.7897546451011 16.27156403568741 9.557194431047417 2 0 6
197 22 2 -0.9210622537927875 -7.018366552865838 17.51442354103373 4.649786063494786 2 -1 6
301 34 2 -0.9462399363734254 -8.403281423228181 14.614680848236375 8.377453573778556 -2 -2 1
165 19 1 1.755323204772149 -8.139440261675052 13.04446839479451 8.232640846064427 2 -1 3
76 9 2 -0.8711399937183629 -7.0209042862006354 16.330457881828515 6.958119218631037 4 4 -4
485 54 2 -0.8339343261448389 -10.193813064629685 10.522945850200198 6.176458386321939 -1 -1 -2
122 14 2 -0.8957619467929819 -10.080926396023148 14.655105450857878 3.355720204679038 -4 -1 0
192 22 1 1.82858726273769 -7.399802988442471 16.125968251406206 5.387019659820061 2 3 2
443 50 1 1.471711343335486 -9.649970988881977 12.030127174691838 5.890453969363518 4 3 2
203 23 2 -0.8410526805962376 -9.251568273528965 12.251588061824465 9.176267920310881 4 -4 2
557 62 2 -0.9353833364174202 -8.441679087266435 11.377184120212386 2.9526376402293817 0 -1 3
271 31 1 1.802926339390314 -7.807619592516979 16.130597186355192 8.391095701276473 5 -2 -4
33 4 2 -0.8271714199880289 -9.223228250268438 16.97603064018493 8.510801109090458 1 -3 -12
347 39 2 -0.8806198169230124 -8.372636320424492 12.428703995628664 6.733283753442976 4 -4 -5
494 55 2 -0.9538290788050251 -8.974547509476064 15.704208908160012 5.490110749706759 -1 -4 -5
182 21 1 1.729177434567111 -10.184137464484424 14.829488594266882 5.009473107589658 -4 -2 3
490 55 2 -0.8821069447788632 -10.445438284984155 13.335220160023884 5.65863607663124 4 -8 0
92 11 1 1.329005993003764 -10.465159092936492 16.89336189052916 9.527925395937187 0 -2 0
93 11 1 1.731324679402925 -10.974197457904992 14.167181197712955 2.0948867698843294 -1 0 -1
576 64 2 -0.9281637701101988 -6.688107912338191 16.34365492796 1.5527403686659513 -2 4 -3
275 31 2 -0.7812399250589355 -11.544194615881924 15.750790290716658 5.3179663986094585 0 3 1
257 29 2 -0.9084614997596023 -11.412333173048552 17.355618145241614 3.2697920917118406 -8 -1 -2
390 44 1 1.585506186297871 -11.843204363242933 17.315457901193057 4.854014836594658 6 0 -1
430 48 2 -0.8655507085303112 -10.377150626195519 12.740236897932421 1.662592563460622 -2 1 5
77 9 2 -0.4813122961846756 -11.636175926918638 18.005700369600426 9.51655115442214 -3 -7 -9
325 37 1 1.791482596636976 -9.05036412566319 11.818803956611308 1.4788361156734071 -3 8 2
29 4 1 1.910339925890586 -5.581908015580095 13.736662315286571 5.0830515235395834 -4 4 -2
140 16 2 -0.9584500982801241 -5.529732035783995 13.763306640934756 6.660348340236546 -4 1 6
3 1 1 1.884911814646514 -5.16402985445535 13.020601420786685 8.072718802235734 5 -7 -4
250 28 2 -0.8426684672008899 -4.188290812766268 13.795352889140426 9.146513537443004 -3 -2 5
386 43 2 -0.9837054023588389 -4.576135216723199 11.604685040707855 7.639921627133177 4 -1 -4
94 11 2 -0.9763495842946152 -4.333177259029082 15.685956657940638 2.603921641617931 6 1 0
575 64 2 -0.9552651059674646 -4.144290420521208 14.075147953305612 4.536981905491325 4 4 -5
212 24 2 -0.9297423417943248 -3.6843060107707757 18.140588877706247 8.388864294153356 -3 -2 -6
274 31 2 -0.9117972710236496 -3.270564437561946 15.53117710548528 7.637413613109785 11 2 1
299 34 1 1.901839052070999 -3.1442837160488484 17.083290228867856 7.2722264070399865 3 -1 2
307 35 1 1.840445623588569 -3.252668659651196 14.862988305053854 3.4559640164424428 0 0 -2
350 39 2 -0.9380581892499964 -2.7252574130704907 13.629197528360956 2.5674691289907363 -6 1 4
189 21 2 -0.9208972143581011 -3.7788027396132122 17.648094299172293 5.902348535905595 -2 1 0
53 6 2 -0.9388648104411088 -1.8994879534500573 15.669050025363868 3.977967005843204 -1 -4 -2
156 18 1 1.990869431701542 -2.024793475394411 12.233911137377708 2.8518379124193873 1 4 -5
144 16 2 -0.9931342606778583 -2.9915747141002917 11.354005704815874 3.7422621539098695 1 1 6
190 22 1 1.768201812013107 -2.789649249040803 14.621522895511966 8.923507521221197 5 1 -3
554 62 2 -1.039828603832214 -1.5797376864318196 17.185826745633697 7.338349953975626 3 -7 -2
391 44 2 -0.8576266635931847 -1.6269604883273878 13.490608426930478 8.690026589797814 -3 3 -7
208 24 1 1.74151115991016 -0.8835611613243994 16.971441901346374 4.029952589956913 2 2 2
211 24 2 -0.8578583913789665 -0.7652116213736768 12.89213984253534 6.450203890946435 3 1 2
70 8 2 -0.9582785044744484 -0.6987592806715508 12.306888014624809 3.7387130427365394 5 -2 8
442 50 1 1.824451456672376 -0.21677528245751887 13.287045145690918 7.938450232082376 0 -1 -3
523 59 1 1.925950317989881 -0.17498152430573555 17.672831596681934 6.843840591207042 -2 -2 -2
106 12 2 -0.8884620364406072 0.0408277055612114 16.99251190055865 5.406493189032275 -2 8 -4
448 50 2 -0.8760375130447907 0.06642897038836892 17.308180861949104 2.755349855609356 -2 -12 6
166 19 2 -0.9997922461613713 0.5202379920834357 14.654629105010825 8.27543133343599 4 -5 3
506 57 1 1.777901929028397 0.12595422394425881 12.491672294184264 5.115746654326357 -2 -2 0
500 56 2 -0.9680593792953724 -1.7005773213665627 11.637405934667669 1.406243698986563 4 -7 -3
481 54 2 -0.8421209171000957 -2.520730131435254 15.449570394952607 10.280252862848494 0 4 2
517 58 2 -0.8688834210722572 3.0229855548620392 10.391458920831033 8.025307282036191 -4 -4 2
163 19 1 1.892103427649097 2.2728660871273583 10.411599307384845 5.033220482206555 1 -1 0
14 2 2 -0.8631614009474954 0.8698101366510738 12.120194746812238 8.36562584060624 -3 1 2
439 49 2 -0.9527971827344129 2.365933437594249 10.577839014614792 3.448640045779107 -7 1 1
226 26 1 2.041367921133995 1.6678569570742123 15.749390386470434 8.11466637222404 3 2 0
414 46 2 -0.9191153953404781 0.9602959922911278 13.899845904945236 5.046243213479895 8 1 -1
71 8 2 -0.9099339987045694 2.5079968292971504 16.038576805413175 9.47027590586056 7 -2 -6
365 41 2 -1.029288355504159 0.944849357770023 17.08762515314795 7.777676640354656 1 0 -4
438 49 2 -0.9747702895997901 0.9821559327147362 11.190191851432818 5.513264580801146 4 -4 -2
449 50 2 -0.9486029073552352 1.678409123063112 13.917399301303716 2.7138533687544935 -5 2 -2
65 8 1 1.793691464685087 2.4719256882750607 11.858688570400753 8.489856490173402 4 -4 -6
335 38 1 1.840867593855279 2.241227693101175 14.260450238658485 4.162079409176522 2 7 0
26 3 2 -0.9663925621708117 2.946466787961203 12.176873559342589 10.045930198542703 -1 3 -5
176 20 2 -0.9939981588694665 2.671730217745532 15.591895184859307 6.9368988715106195 5 -2 -5
277 31 2 -0.9578230350660228 5.193258199149627 10.85973527389908 9.136240946440772 -2 2 -6
413 46 2 -0.8916823472123245 2.9202166144248114 15.721576293099288 4.412169810181779 3 2 1
526 59 2 -0.8433940447065287 3.6733460306342156 11.029633954926247 5.65074386132456 4 -7 2
337 38 2 -0.9424063691263616 3.376659413762468 13.234734629952309 4.726064906992905 -6 1 -1
499 56 2 -0.9302295571303534 3.009093895043362 15.661078783701898 1.4719837638227198 3 -8 1
453 51 1 1.78643743003992 3.9152666111336174 12.600110522867551 6.043809851529551 -6 0 3
336 38 1 1.825739197779416 3.562469232559744 16.29164823665849 5.7915202137188775 -1 -5 -3
410 46 2 -0.943207424211234 3.02693341533244 12.892908747067752 7.356984597464103 4 -3 3
421 47 2 -0.9231189392404563 3.6165293010729567 17.92038308729297 5.890646913190206 -1 -3 3
252 28 2 -0.9129000660994143 5.02477794226745 15.66319783290789 6.118742924920799 3 -6 -1
34 4 2 -0.9942461549116962 5.429269535540749 14.73328403930148 8.636876243767162 -5 4 -5
540 60 2 -0.9418242410008238 5.284740826888088 14.505358758333028 2.268017478599149 -1 9 13
431 48 2 -0.919232240339811 5.391463292672713 13.200300003470149 6.44822539031816 -2 -6 7
460 52 1 1.778784510257287 6.664278346717717 13.630631552040093 2.1361832583589107 5 0 -3
11 2 1 1.859746271117767 5.780296127747752 14.590458972583248 7.094493351614085 3 7 -3
348 39 2 -0.9645431173935066 6.74808122003464 12.871528259711218 9.82903624189672 -4 1 3
416 47 1 1.999032931442327 5.988679640002642 14.242311735620152 10.021648921346651 -1 3 -9
496 56 1 1.865096512960982 6.71539542169876 11.302931930632681 9.416744913559045 -4 0 -4
491 55 2 -0.8296185025564633 6.744073121947137 12.166671589528955 2.8918695176351683 -6 1 0
471 53 1 2.01767943187215 6.9488897402728735 18.02126538857582 4.2241700952137515 1 0 -3
56 7 1 1.809486004832716 2.7169024096452823 17.456448123596658 10.279700889625246 -2 -5 0
167 19 2 -0.9382627467228453 7.334449994937922 15.10904794135645 6.935330213157756 -4 3 1
456 51 2 -0.9931911708239372 7.262893795676929 17.4866085698045 5.675431758665518 -4 -3 3
12 2 1 2.023765873684484 8.125296127751861 16.426125015035748 6.569272925331606 -2 2 1
58 7 2 -0.949138471351632 8.573837784753456 17.278033029873804 7.861271151144106 2 1 1
200 23 1 1.829024465878011 8.3757717016028 15.955953371253596 2.2712960519022856 0 3 -2
327 37 1 1.751334866702106 8.23615515696281 11.434202991149581 3.1579079839724375 1 0 6
372 42 1 1.834641400074539 8.789221476575053 18.034039888119363 9.275250734252246 5 5 -2
403 45 2 -0.9395318995890785 7.431243537613893 16.8930104104852 3.232092067580445 -2 -2 -5
527 59 2 -0.953001282964021 7.710391290416704 11.18691810895778 8.177340273842045 -4 -1 0
482 54 2 -0.9063545216097368 7.948579094706249 14.463572279383564 2.67282685428804 9 6 3
384 43 2 -0.8803817648492483 8.724836437642614 12.317393748990995 4.410592556066275 7 -1 2
441 49 2 -0.9005148232521551 9.176159938221547 11.580372469876194 1.8429613867632277 -1 0 -3
426 48 1 1.959180021988862 9.23582939219355 10.766787093646174 7.879483414825165 0 -6 6
67 8 2 -0.98276169950035 9.274369581775927 15.99722010219141 5.597330919597966 -3 -3 -5
303 34 2 -1.002928577862648 9.795482712462912 11.217633993063442 6.4861665311689665 6 -1 4
80 9 2 -0.9418128048049269 9.989292537391597 16.243176909773656 2.3339044411724053 -7 1 4
191 22 1 1.916947711514648 10.677034440410905 15.226290043565728 5.580690379966293 -3 -1 -3
304 34 2 -0.9533232196466834 10.340986892421677 13.752236476596854 6.067952800737092 6 3 0
533 60 1 1.944543015376221 10.04026719620684 12.332749156549102 5.384062445464655 10 -7 3
238 27 2 -0.9123701619347475 11.334852537987276 15.156650512183008 4.121987928084551 3 -6 1
235 27 1 1.825487136820486 11.462431322515046 15.661332679568678 2.5840249357067053 -6 6 -6
103 12 2 -0.9229723618285451 9.935039713106269 11.69304945323056 8.96577465168092 4 7 -8
400 45 2 -0.8618285364054951 12.6774597431142 16.777705272754822 2.5190161637316733 2 4 4
72 8 2 -0.9088827788098217 11.656187830353192 16.009479486922867 6.629294554176686 0 -3 -4
423 47 2 -0.9701152423104279 11.372829974582112 12.104787118954894 4.527220693284486 -1 6 6
265 30 2 -0.8975084697465148 11.85304916824157 13.181584464003246 9.82701634556935 -1 2 1
6 1 2 -0.9345784379808906 11.72081238747837 14.415881127533346 1.6056252938609172 -2 1 -8
451 51 1 1.897703115703566 12.885234534786862 11.667336385676363 4.495080793532049 4 -1 2
412 46 2 -0.9459201234803813 13.023612290197471 15.240382064722372 8.779675878958999 2 -1 -3
2 1 1 1.797695798045734 13.114605547190815 15.78778773710305 7.291125702761519 0 1 0
127 15 1 1.772999941343212 10.998173768190329 11.831883841955683 10.151084467713789 1 9 3
532 60 1 1.74614414745103 13.293234479978421 13.856854872974793 9.568372123111795 5 0 -3
17 2 2 -0.8687401458626636 12.105984384636502 10.677478610875411 10.247954441852702 1 -1 4
157 18 2 -0.9426962799833505 13.549792265002916 12.105136976942278 5.898298849076742 -3 -2 1
188 21 2 -0.8791391211529743 13.706559499169257 12.2033192611998 3.2296530551604548 -1 0 1
555 62 2 -0.8869546814903473 14.062816418587373 17.140478185265835 7.384011937219343 -2 -4 4
282 32 1 1.745468990019252 14.375931725150716 13.12466542597584 6.77550613664838 -1 2 -2
495 55 2 -0.9024081798456588 13.767166157681329 14.560519255902348 6.416311558859192 -1 5 6
132 15 2 -0.8574154697485556 14.141238616872181 12.989429101417702 8.407490858369417 -2 -1 -3
461 52 1 1.423240681562036 14.534812234514066 11.507579244547994 1.991345685090514 1 -9 3
385 43 2 -0.8305354504712281 15.061509885589418 17.754484039482712 9.61535859075006 -4 1 1
465 52 2 -0.4966445668896756 15.878616380468577 13.035839816379282 6.192724925628655 9 -3 8
342 38 2 -0.7512705727383276 31.271505308881977 18.02620639865542 5.076399297956504 -6 -4 5
169 19 2 -0.5368988562464346 32.18436729004373 14.176972791125946 2.5356458679495626 -3 -4 3
321 36 2 -0.9885487189448929 -5.96079326329602 3.896655734350786 12.03026193071182 4 0 2
328 37 2 -0.9980004461502126 -5.8031101022221705 6.4928934779815295 12.047906910087388 6 3 -6
41 5 2 -0.9142321363307371 -5.726242470094055 8.972171971744329 15.619974360506689 0 -5 8
455 51 2 -1.010776879603843 -6.168687366658402 2.694602674236546 15.139491012860448 8 6 1
100 12 1 2.103460172772977 -6.736486514528601 5.253602530501508 12.41382927426895 -2 6 -2
338 38 2 -0.8817495059240754 -6.834932700617301 8.59444373173484 18.068888096349784 -1 -1 -2
552 62 1 2.001269842712806 -7.324322734929736 2.8556446161972717 16.215548900542114 -4 0 7
396 44 2 -1.095229176157346 -7.264391491564628 5.481525501615994 13.862536601904637 -1 -7 8
316 36 1 1.782517173377501 -7.048562355068182 8.449319133072395 16.413638322178898 5 -4 -1
142 16 2 -0.9814287196886647 -7.6448701065894555 4.438359621013723 16.11602576888312 -1 7 -6
160 18 2 -1.033657408451125 -7.4602133454501125 6.957014193780066 15.96136757331808 -6 -1 0
229 26 2 -1.009554288706016 -8.009934492443001 5.180202901625726 11.502676228676648 -3 5 0
292 33 2 -1.011354229729606 -9.592355900322767 5.733140876303524 15.026505209365768 4 6 -3
262 30 1 1.835950556896937 -9.203985714005723 4.25272514621989 11.074288164941477 2 0 -1
267 30 2 -0.9530306112458269 -9.264134772227631 2.972505307301414 12.061159245734062 -10 2 3
371 42 1 2.131940183180143 -8.009011042097246 5.688427791461208 15.236496476638896 -2 -3 3
51 6 2 -1.00878469072695 -9.365607516698283 8.321405856784876 11.448362473613654 0 0 -1
108 12 2 -0.948316238685908 -8.203740888754336 9.528909125788404 16.223900727835563 4 0 3
334 38 1 1.879387952375037 -10.678358594650255 8.49466263495538 12.336347181574087 -3 -2 0
81 9 2 -1.019320606034877 -10.854885647970814 7.548332043630574 13.633259261683197 2 -3 3
310 35 2 -0.9384779180060799 -10.528987384623603 5.078863642965288 11.372416216396518 -4 -2 3
97 11 2 -0.9415409809068405 -10.54801746379677 8.674053453913707 16.895225868333196 -3 -3 -1
37 5 1 1.865069718343313 -11.01173778638904 6.294642943255852 14.495842906364448 0 8 -4
440 49 2 -0.9053585651108754 -10.830452642180456 9.946871207004117 12.989412163498226 -1 -3 2
356 40 2 -0.8325829481185465 -11.692581529137936 6.965469116926509 18.37954263764166 -3 2 -6
74 9 1 1.732125936449473 -11.89359848452481 7.819666009924726 16.98800842199396 -6 -6 -6
204 23 2 -0.8502732862090948 -11.904476412823087 6.700912233011206 15.75783384028423 -1 -6 -5
313 35 2 -0.7967339749491913 -11.959142782406262 5.157703140638769 13.640341846057186 2 -3 -3
149 17 2 -0.9521361565155023 -11.930577022735644 8.306593905234656 11.330477902135042 -4 -3 3
505 57 1 1.321471301117531 -11.926640096417781 4.80649958368397 12.058043419631593 -2 6 3
39 5 1 1.840971689580191 -9.613235523751325 10.00961451934788 16.820560137519806 -3 -1 5
363 41 1 1.572468134286891 -5.702474920716992 10.24581674629427 18.646412027009 -2 -1 0
432 48 2 -1.0200623586037 -3.89583425522766 7.146940808961217 19.149208283190617 -2 4 2
392 44 2 -0.9721392016126212 -5.020477350332621 8.513288539511253 10.445609619284964 3 -7 1