(written by ASE)

1371 atoms
2 atom types

0.0      26.550000000000001  xlo xhi
0.0       25.54774941164094  ylo yhi
0.0      41.175358433899994  zlo zhi

Atoms # atomic

     1   1      2.9399928181883954       2.377111635864555      10.704487203699999
     2   1      26.420816233643684      11.206356824889335      20.105470958799998
     3   1      23.919832933460775      14.150975527024526      11.972104489199999
     4   1      18.011316808361407      22.327423459991802      18.507999658999999
     5   1      12.921815447941043      5.9462980283894691      6.0986564816999991
     6   1      20.615742919659979     0.59297210119254729      12.472691693299998
     7   1      23.517318851760848      3.4948097199475221           14.2334892894
     8   1      19.890361145355772      22.780178390226236      15.719235930199998
     9   1      2.3468798628683381      1.6367808136176387           21.1339743875
    10   1       6.371944701546612      16.026869327395655      3.9618389866999983
    11   1       20.98486004939193      23.610933534355972      10.129546237299998
    12   1      20.889714303409459        9.50402445559887      7.2605471801999979
    13   1      2.3430629848268545      22.815220851884639       8.187459604799999
    14   1      25.194971947222736   0.0080899292322703306      18.190255329899998
    15   1      7.4831663530773715      1.9746830297976672      19.216175846000002
    16   1      2.8634087930871672       21.98339446874132      10.344829342000001
    17   1      9.8260812723413569      24.274207319125509           10.8946345164
    18   1      20.931793810328106      21.927380590085537      5.1352155227999976
    19   1      12.502608657800558       4.192068474759246      20.206830555299998
    20   1      19.335511289815976      12.516396567714564      17.292393351499999
    21   1    0.083701459862764338      1.2217157100269684      5.0436039604999987
    22   1      4.0767016222100967      14.506081642342064            19.506677006
    23   1      26.151502838828698      12.063223763557275      14.104372922399998
    24   1      7.6877368247127809     0.28625376192662699      17.732072664199997
    25   1      14.969605164256192     0.72815404359407598           11.3395494711
    26   1      15.938216196253391      25.462385732837383      5.7973225522999989
    27   1      16.169086870788455      11.248989423597044           15.3852255566
    28   1      15.493073712501639      10.972003435590153           19.0023365407
    29   1      23.164558160220171      9.3722456021689933      7.9763894661999997
    30   1      13.531555565971722     0.32675730263216352      18.675601131099999
    31   1      16.794410719403828      2.0761243481682961      19.253120795099999
    32   1      26.245091637521046      5.3972536410510159      3.5366076347999993
    33   1      24.970396811404584       10.66747085467942      7.3561477770999986
    34   1      4.0333782067076296      23.978639556888133      20.920146902499997
    35   1      15.972665858983028      3.4712086540047431       7.071385596599999
    36   1      11.685662926943266      17.235421542548522      3.0083273499999983
    37   1      8.6986211968575304      6.6164864979464006      5.5996298142999983
    38   1      16.748252630291596      12.551961299766763      12.480689506799999
    39   1      10.579493673554559      12.633178456234743           18.6618165858
    40   1      9.6901448862590751      4.9103675592935918      4.4806612412999982
    41   1       14.86178617582318      24.819893173955954      3.7627097721999991
    42   1        18.6919326687437      24.864011327107256      12.388157883699998
    43   1      8.7496303212880697      17.679928300448069      11.148343721099998
    44   1      13.419381660088233      10.118962566227793      19.423389563900002
    45   1      19.413561158770211      19.929535703392965      19.565588160099999
    46   1      25.039098398246249       22.64406095501727           18.6324741904
    47   1      25.496375180905609      4.4728890779481123      9.1006026422000001
    48   1      2.4977335268913823       4.596091263663892      10.697806017799998
    49   1      5.8607155803051603      7.2922524152831842       9.612153622300001
    50   1      4.3787664282331642      17.449524477010542      13.684705454899998
    51   1      6.2985619545224791      23.096714579104955      8.9862374715999991
    52   1     0.22227989562447442       9.132112256875466      16.372847097899999
    53   1      25.560428125899392      6.0493483797281282      7.3834240598999976
    54   1     0.71773818220900409      1.6130532605759027      15.769039487099999
    55   1      17.233688766415362      20.453261877935482      19.403247104999998
    56   1      23.280388073453214      11.598641139982927      17.930617572099997
    57   1      19.584632424403623      3.6662596501446192      20.918344935300002
    58   1      22.247298979226958      12.186104757175327           20.0758220976
    59   1      5.7307076178581537      19.094297744821922      5.1527163941999987
    60   1      15.051577817163702      18.200919968786422      19.722028704099998
    61   1      1.5409175606496497      4.8852963820262039           15.0627067423
    62   1      14.378707717796539      21.377671671679842      11.538836479799999
    63   1       6.594416669379763      7.3517569815538426       3.037474690099998
    64   1      3.5722484047282914     0.62081950240566819      9.2137232556999997
    65   1      20.864847895377849      9.9255825535125837      14.139521264499999
    66   1      25.530565642260271      12.067806907073333      18.069262222199999
    67   1      6.6832253019218637      3.5766689042758393      17.853309866099998
    68   1      6.0090614629083161      11.731246224196099      20.597012089099998
    69   1      2.8304805698066371      22.610580977413697      14.120698807399998
    70   1      8.9739038154199324      11.775760616198083      5.0147499455999984
    71   1      23.004636644450706      6.0229551480943906      17.270904992200002
    72   1      14.865606134638931      24.139373849665876      18.281527670599999
    73   1      5.1815363607932809      12.602481506204445      6.0135039523999989
    74   1      12.925873380888291       20.65453965813559           13.2197772697
    75   1      9.0111529656859197      9.0173375624589749      10.626697977599999
    76   1      21.442102786243012      17.196356833129808      14.792943056899999
    77   1      4.6105941775776653      17.260634149258763      17.233781286899998
    78   1      10.107592062418137      19.438638624217408      8.4107984226999992
    79   1      26.188818688779936      22.376714767721573      14.965386017499998
    80   1      11.384381900769293       18.35362386155435      18.065414066299997
    81   1       26.02995377226657      19.647316379880856      20.608813489300001
    82   1      15.271063791483753      14.953713454398642      19.625860473499998
    83   1      3.2320671454306371      6.2734041508116425      12.123437246999998
    84   1      19.367996441734086      10.250885435005927      20.092114170900004
    85   1       23.33094002166289      1.5972381232510227             15.43414527
    86   1      10.393556052567197      9.0880306133113677      18.322669574299997
    87   1       5.789400532165291      22.827905127930009      6.6451737963999982
    88   1      9.5399416235896997      17.048748072032453      13.184542376499998
    89   1       18.20667457641952      2.8387042532991718           13.7828854063
    90   1      3.5824578833528933      16.140667814962171      15.419542810000001
    91   1      13.013869874340537      7.6552567732613914           11.2044167721
    92   1       21.08690496767986      9.1727117476765621      16.391865837700003
    93   1       5.770954173027075      15.685936812487913      18.436004668199999
    94   1      4.0587525382932945      6.7586111847034562      8.2209453454999988
    95   1      18.536403319247864      17.165451215911979      9.2093620432999987
    96   1      17.952724256999719       12.63926052516959           15.4699501829
    97   1      7.8887128750646616      10.323769725738751      12.109803753799998
    98   1      11.500394929379709      19.083669384933103      6.5950771476999988
    99   1      8.5769487185367908      1.9160633710432169      8.8406580438999978
   100   1      20.808074448690469      8.0917294846489298      12.800945225600001
   101   1      16.674873378242268      10.110395440147725      9.9587641906999984
   102   1       25.70922117584805       24.44160351215195      14.233334507499999
   103   1      12.321537699414799       22.82907165724928      16.431230242199998
   104   1      9.2032290503713856      10.465210016913989            6.8473781509
   105   1       13.05772050100525      17.313538591867498      19.154454740399999
   106   1     0.93068929631524178      1.3582288352894309      11.068557791999998
   107   1      25.990874170600655      18.358624665883568      18.772936256199998
   108   1      22.566176135602916      19.246474935056224           12.2668593629
   109   1      6.5537428753872078      23.935561692420706      3.3289458655999979
   110   1       5.891340297792194      10.824779324043838       9.341194012599999
   111   1      15.030197310069264      21.101641172448421      6.2543086174999987
   112   1      10.636365659967112      24.047075625433575      17.333935355099999
   113   1      10.324784583317909      3.6068563272369669      16.723990957599998
   114   1      9.5670923193255017      21.526764608220731      8.6306486391000004
   115   1      8.9763339234618726      12.812540466213692      9.5544431135000014
   116   1      21.620263061433928       17.69002118872692      17.534450909700002
   117   1      8.0152570366878333      11.186170730956075      15.848878839599999
   118   1      6.9677179604977297      23.416226211284815      14.227405497600001
   119   1      9.4249976095712018      16.028065534552706      5.8909822091999988
   120   1       18.42384552151043      8.0326447083264174      4.6636400420999991
   121   1      9.4385928311517375      8.5825063585566372           14.8744526707
   122   1      3.5861028734148057      4.4033394214466792      16.073571400799999
   123   1      18.605495508943687      7.3845981961451237      12.752369371599999
   124   1      25.792876221426006      19.305325215688214      16.706106160500003
   125   1      16.151349186727852      17.160898472340168      4.4778330647999995
   126   1      8.0788279405151364      3.5096849980051541      16.009050005599999
   127   1      14.911162527758933      1.8229033723944568      6.0116661195999992
   128   1      21.971266804790162      13.055813786486901           12.3302187961
   129   1      3.8435022780823758        14.4193259332768      5.6747332020999997
   130   1      11.241113712834061      15.646546837969598             13.37754303
   131   1      22.497863374805782      5.7235493856783437      21.018981054099999
   132   1      16.950037331652162      18.142441444428606           16.0169124528
   133   1      13.850344351216542      12.455906188587878      10.399453014399999
   134   1      8.0607979888468151      7.1275221464714518      13.940772194299999
   135   1      12.794049812334228      10.092187280945229      5.9408751136999989
   136   1      11.090271941978411      19.775740313203638      12.290567692200002
   137   1      12.891157470034424      23.896985015795273      4.3864748611999982
   138   1      3.8398777088059819      24.072251310725157      18.608659558699998
   139   1      6.0486573131124386      18.864697067276882      16.379477051799999
   140   1      10.449529778898802      11.494855037922955      8.4327440293999985
   141   1      17.199995339975903      16.192034204800503           12.7711289101
   142   1      10.869684103837498       22.44724690421527      10.258074630699999
   143   1      6.5184459461387281      18.000141616161741      14.260411049799998
   144   1      13.576123999156161      14.611115151514364      10.288358077599998
   145   1      22.580511583059685      12.877653812962725      16.109411916699997
   146   1       23.90908271195795     0.32515462577064658      11.517430153499999
   147   1      10.140993946343556      18.909452700297738      14.209231398599998
   148   1      7.6741792060551113      13.181493144475933      20.690631829800001
   149   1      16.984552308252649      24.165639241453913      19.045411275999999
   150   1      2.2655295700546922      8.1595101912629744      8.0690721712999984
   151   1      6.3186702340861096       5.677703532866567      18.378604616699999
   152   1       15.64247414996181      9.4196875328224738      11.867165431799998
   153   1      5.5312960402162199      4.0419440871871135       9.217555158699998
   154   1      22.361312209683991      11.639430585146261      14.091646881299999
   155   1      17.486117872807924      15.616428480675658      10.524120396099999
   156   1      13.491600983731983      9.4369750172085141           12.5061010033
   157   1      3.2196670254156721      2.3413096888009797      13.052971746300001
   158   1       22.44290020816582      13.302283202716694      6.2700885889999993
   159   1      6.4846971058620513      7.3890337208811268      5.3310902916999989
   160   1      8.5965248355620467      8.4815439704577393      17.026301755800002
   161   1      22.412660006552155      7.8069693851951332      20.253414026399998
   162   1      9.6915031345805644       20.79674985663042           15.2534227671
   163   1      20.254936127731952      17.494318250594489      6.0044739992999983
   164   1      7.8864127868625102      14.188688915323135      13.788250384099999
   165   1     0.17227672496785118      18.529504409265279      8.6549928738999977
   166   1      18.493532918833498      13.527477285657715      21.133567097099998
   167   1      14.203364505022213      3.2923719400308022           17.0064956262
   168   1      21.595625175586317      3.8267046104909017      9.6070179412999988
   169   1      2.5770019947959533      3.7358233377848258      6.6408244315999987
   170   1      3.4601447331189781       24.61147859438147           14.7265295275
   171   1      22.532280055288481      17.330391291921998      5.9029639415999986
   172   1      8.8682144665223852      18.670552703229596      4.0674470826999993
   173   1      12.504973506246868      8.5510662228832146      9.1475088149000001
   174   1      16.862240842783784      10.507246324783598      13.374119972900001
   175   1      12.540786653060753      17.388591495948646      9.5450597169999991
   176   1      20.006547455916017      15.441654543797037      15.152021079300001
   177   1      19.073595389292041        10.5606822597089      12.821192723999999
   178   1       20.60596044227141       15.86949605483829      18.419422785100004
   179   1      10.238036890986994      2.0549597997831324      10.412481621799998
   180   1      19.383123042702763      2.3147652709252373      11.849182309400002
   181   1      9.4177532838422273      20.684656219552892      17.594755051099998
   182   1      17.562102145630128      5.2635374875189553      9.6248552575000001
   183   1      2.3759159718714109      12.490012068720173      16.603907407099996
   184   1      21.293649522781898      21.438286103447183      16.914868986399998
   185   1      13.712254835010571      14.763725056832687      4.7110742321999979
   186   1      5.1954281260729127      5.5235233154257823      12.973301901699999
   187   1      5.7917485267471118      1.7677363810272946      20.740515553200002
   188   1      26.536705505619658      20.103595992137109      6.9982000946999987
   189   1      19.899860600760604      8.4038342807467128      9.1174660222999986
   190   1      12.293876213053299      11.125069323348557      11.631822249499999
   191   1      14.743039773208688      4.1290683570022217      12.017105194299997
   192   1     0.47520367804755165      5.9938616778474554      18.723897184699997
   193   1        12.9193967415796      1.6515417257626288      7.2271425955999993
   194   1      13.183992395682987      22.410226486337613      6.1820534916999987
   195   1      7.7582777446722186      24.604469818345748      9.8736521624999991
   196   1      4.8290750935193376      20.755825440714901      16.191537178399997
   197   1     0.41571494984136947      2.9980546814896361      6.3646606097999978
   198   1      24.087777823251699       14.51589240084879           15.8131253531
   199   1      18.167106677469601      7.5931716596034944      15.125640786499998
   200   1      11.166927097429001      20.297746622412994      18.977871754300001
   201   1      8.8044178841832146      22.735441608678109      17.466619420699999
   202   1      16.262344102631051      7.4419663607711408      12.392518562299999
   203   1      4.8134978708154073      9.9603057582513337      16.259879833399999
   204   1      22.109364068954079      21.827424426005571      9.5358143790999996
   205   1      18.101146617178244       13.64765730127189      18.831501677999999
   206   1      24.145639536020429      7.0886097092105809      14.249129200700001
   207   1      21.541756679406898      4.5049976375611056           13.6488258078
   208   1      23.876561499445973      23.976317573040191      6.3586779430999991
   209   1      20.093244444605784      16.147457140328843      7.8986913525999984
   210   1      7.1422570101155038       9.840779380538196      7.6546285571999988
   211   1       3.568679137631678      7.1808251591510297      20.629234215199997
   212   1      21.907615025540959      6.6471736333455009      14.103659757899997
   213   1      19.625405521275653       10.34999148516135      17.737911121899998
   214   1      13.611133106316323      19.343511544016824           15.0011536365
   215   1      9.3112283974082519      4.2922259162307501           12.9624230504
   216   1      12.481989263998855      3.0064433928967382      3.6874946479999982
   217   1      16.771401339183502      22.464187095844284      6.6013047786999985
   218   1      9.8446371314985548      14.517737191722167      10.670053724799999
   219   1      15.793480711656285      12.490159402077113      6.5515577150999986
   220   1      11.519454199382908       7.089713296800138      17.899219481499998
   221   1      25.434666221020805      14.278692774574855      17.679322603599999
   222   1      25.466012194174276      22.719292454181215      9.3892535795999983
   223   1       23.46871293224153      19.135001339944012      4.9965140080999983
   224   1      5.4987388707090608      9.2976484306075236      6.1114919165999995
   225   1    0.062951173351414022      21.270874383029529      12.947012050199998
   226   1      15.656661272556022      24.150802536718743            7.7122824174
   227   1      7.6326295039552816      1.0249220234869227           13.1531920378
   228   1       19.48027386852656       19.01643853254464      10.006063771499999
   229   1      17.962873385363366      5.4331664272999776      18.731179232299997
   230   1      13.153026700857597      3.2104251709800629      8.8703999256999992
   231   1     0.25776230641701581       22.21375433963501      7.5495520187999983
   232   1      1.6293369939200999      14.184707083008883      6.2481600405999993
   233   1      24.511530254072177     0.51701928110414208      5.8096474414999992
   234   1      4.2640397192927662      15.250889110060429      3.5361990008999986
   235   1      23.041580862048875      15.264089435770519      5.2057329884999985
   236   1      4.3417525217345698      12.901471664348618      13.312491569999999
   237   1      13.114686134702563      25.003229520099126           11.3467356799
   238   1      25.512860600910908      2.0793854298437484           18.9194934816
   239   1      16.678057445442363       3.841918805281606      3.6739862555999996
   240   1      26.478304940964183      14.946201600361317      9.5913095300999984
   241   1      11.933031008249079      14.044277607474328           19.7203409199
   242   1      8.5236803071813654      25.498020888442056      7.8640608269999976
   243   1      21.142057923413525      19.982965011550288      8.6931345836999991
   244   1      18.338130223142713      15.785559581627599      18.326522853399997
   245   1      17.061831408653024      18.037836299389593      7.6200013057999998
   246   1      21.683231731468531       12.13838569740008      10.155186301099999
   247   1      6.0370580295421234      15.200639506318408      10.716344588299998
   248   1      4.2588060746275183      11.680585607243387      8.0167851222999982
   249   1      22.906030749133798      16.043667796497587      11.277643961799999
   250   1      19.831361184365758      25.011671652529831      6.9081139899999995
   251   1      4.1870221423536353      7.9134994637141647      15.739341207399999
   252   1      10.667661496796295      14.735353342138145       7.223566707099998
   253   1      2.7607894496305079      3.6700290845903436      18.193407300999997
   254   1      24.605565989610245      18.084049478391133      15.213655949099998
   255   1      4.7394886427613176      16.821224493617137      11.509722377299999
   256   1    0.012037137169098551      8.9822730550180765      20.544290793999998
   257   1      3.2042592128671941      19.306067157148153           13.0090151695
   258   1      25.846800297084016      23.001013965024136       5.459952155299999
   259   1      18.037272606913291      8.8619207515646785      17.106463976000001
   260   1      24.986641034941904      21.392105881332547           16.6342194689
   261   1      1.9900148807379168       8.339125368336294      14.978414222999998
   262   1      26.532285836663426      4.6880440389444669      20.713735718399999
   263   1       2.168394994756861       13.83749555161072      18.446919409899998
   264   1      17.944415922912736      6.5227819085359098      6.3342270894999988
   265   1      7.2085222308558423      12.010698161788817      10.800727360999998
   266   1      18.169916719934715       25.12103538997345      5.3056846355999987
   267   1      11.349548961466725     0.18358206195588225           10.1321334758
   268   1      17.122543232011711      19.161813413790348      4.3103030127999986
   269   1      2.5817374435999625      9.8268595249220176            13.334561222
   270   1      21.902145270258256      1.7325850156418543      8.8361254529000011
   271   1      24.679991336281304      9.0439414405564182      15.296279952900001
   272   1      25.433725891525409      13.049127728698364      4.3855207465000001
   273   1      21.130918889459242      6.9392011410440295      16.286175205300001
   274   1      3.4903842138139907      10.969888339776752      17.858443880499998
   275   1      7.1583937112326588      18.973419263434177      12.184770477700001
   276   1       14.74042497134162      6.2269098526506896      11.195028380899998
   277   1      20.538015765645348      24.859070344473402      16.110379865300001
   278   1      24.713836533234669       18.48593343894737      3.1508085805999979
   279   1      1.2347683507114375      8.4807699636026648           10.2053179507
   280   1      15.487594358466181       6.069672170180973      8.9876740205999983
   281   1      6.8458831632395816      0.3782886471312068      6.4225515948999981
   282   1      22.207215913845015      4.7082504039917801      18.966332039999998
   283   1      9.6976287973848745      22.459860767452401       6.540076127299999
   284   1      7.5607033912789339      13.253122811890012      15.878100779499999
   285   1      1.1554562853361503      17.026179589377133      19.122329566999998
   286   1      6.4815263710451392     0.47204980721638817           11.1943954693
   287   1      9.3877775508245627      14.186011394054248      2.6837964203999984
   288   1       17.80197764507631      13.565455473079776      9.6472418148999992
   289   1       3.417648515313493      4.6825455367693056      8.6222176065999978
   290   1      21.871166792792632     0.12541486620165071      10.526758903799998
   291   1       19.21884042298127      23.806180457161602      8.7281549461999983
   292   1       1.838275305169466      17.732293347743209      5.1911159054999985
   293   1      16.869117143374485      3.1783009749451647      9.1991237999999989
   294   1      6.2088625985820922      5.4620879031656289      10.858413715699999
   295   1      23.225622038014411       16.56779309822323      16.079939447999998
   296   1      5.6506330897857566      8.2342174197356073           20.7173799762
   297   1      22.713293163860175      19.133240285953111      14.574692626799999
   298   1     0.24827034846910931      2.4614471545087078      20.770469942099997
   299   1      9.0253660037765631      16.264901677525124           20.1036738267
   300   1      9.5694727486444542      4.9294169632826952      9.0259469799000005
   301   1       4.800832998885836      23.033811469050583           10.7627515638
   302   1      5.3922467282547633      18.793840500371026      10.684402889999998
   303   1      2.6027346313032709      21.650041266012678       4.618629284499999
   304   1      11.617073639906478      15.312835584975462      9.3327859281999981
   305   1      20.133354407195746      8.1767516446082666           20.2612388929
   306   1      15.646526963658403      5.2789531226399609      14.998737841600001
   307   1      1.9881401426010681      25.062792054076173      7.9168035305999993
   308   1      20.067938358918116     0.08705278235317386      19.988659033699999
   309   1      19.566769363316467      3.3556534615294988      6.4073654255999983
   310   1      15.787025595628913      22.037360340123563      15.366513619600001
   311   1      26.137746709272363      8.0238714622849461      18.473219057999998
   312   1      22.623766487210744       18.52942870571216      19.496131375299999
   313   1      16.009764211514103      7.3274334211351295      7.1249919010999987
   314   1       14.62535389650245      20.500609394546249      16.660818672800001
   315   1      10.629839692345591      17.675870735711385       5.026039053599999
   316   1      9.4279204233268565      2.9114412502886093      5.4383719434999991
   317   1      7.6239655926892338      24.048968684672531      20.834775993999997
   318   1      14.557691053048273      8.2632247180811902      16.307280726800002
   319   1      18.562125103623451      19.710212547006257      15.699631130699998
   320   1      1.8350422176368753      25.363337703922703      5.5022355574999988
   321   1      22.789569558941242      22.389808215881754      13.514079016599998
   322   1      14.592697428096647     0.90819570427810536      2.1278200864999981
   323   1      20.216021614884568      19.506493127048103      17.362362883099998
   324   1      9.2086201758088464      10.588046881595783      13.978388964200001
   325   1      12.964224469737074       21.32573895501173      18.020183026599998
   326   1      2.2985150038862012     0.13490569575976075      16.385856000200004
   327   1      24.397868379463521      10.686101490264193           13.7315085438
   328   1      9.3603913800448399      2.4136408882083451      20.415390451499999
   329   1      22.130622405435119      15.654986618532511      9.0477247461000001
   330   1      1.0885861384025368      12.571485025962486      4.8009548017999979
   331   1      19.908743910438922      1.5462408754727246      7.7509717675999985
   332   1      23.390182436577781      24.261105402914609      19.114067764399998
   333   1      15.944449817524427      13.080209218968726      18.675121713200003
   334   1      17.799812682565708      23.082764146591536      4.4842577320999979
   335   1      25.238588658940628      15.249126541131453      4.5334281165999979
   336   1      14.756337189361114      2.5330278272464675      3.7420920823999992
   337   1      18.979970756621874      14.674421817247996       6.552380562599998
   338   1      2.7689264312081363      5.8557307927701601      18.882195104899999
   339   1      16.085833738671514      14.394156478524252      13.447725207999998
   340   1      16.708927701415178      14.435383570658823            15.674108505
   341   1       6.874906626989616      9.8863195087559905           17.2917832893
   342   1       11.40935592326564      7.5352439630864181           14.6397976104
   343   1      11.154962181199414      25.401045174853568      4.7551405116999987
   344   1      9.8675575408416769      21.621681414642651      12.180650776099998
   345   1      23.621468586680081      7.1166298180357774      8.0285939612999986
   346   1      23.225149882997218      9.5304572252945423      17.060884441599999
   347   1      5.3718438867658627      3.7082247233182177      2.9237730258999992
   348   1      26.464503180800875      14.373109253521038           20.9737277696
   349   1       11.48971670410538      1.9345762602032008      5.4453280392999979
   350   1      2.9383757310387679     0.15723221136575177           12.8127099185
   351   1     0.28285257508036321      4.8228197652990721           10.9032156252
   352   1      12.082356621537755      25.263625557173654      7.9948887528999988
   353   1      17.247791986603165      13.873181644917748      3.4502421723999981
   354   1      3.0633293815352882      5.3798774518320052      5.1531087742999979
   355   1      23.725593625887541      22.298044812251803      7.9344838804999993
   356   1      7.4363113777765841       13.17691986688315      5.9504270511999984
   357   1       16.17740995016209      9.3900346355109061      7.8163522133999992
   358   1       14.07402776872012      22.499455099409339      19.590096265699998
   359   1      24.445124955390323      5.2161964362322584      15.575917595599998