(written by ASE)

2736 atoms
2 atom types

0.0      32.450000000000003  xlo xhi
0.0      30.657299293969125  ylo yhi
0.0      50.906249999999993  zlo zhi

Atoms # atomic

     1   1     0.67604166666663268     0.63869373529105811      1.1999999999999993
     2   1      2.0281249999999664      1.9160812058731049      2.5577499999999986
     3   1     0.67604166666663268      3.1934686764551512      3.9154999999999989
     4   1      2.0281249999999664       4.470856147037197      5.2732499999999982
     5   1      3.3802083333332997     0.63869373529105811      3.9154999999999989
     6   1       4.732291666666633      1.9160812058731049      5.2732499999999982
     7   1      3.3802083333332997      3.1934686764551512      1.1999999999999993
     8   1       4.732291666666633       4.470856147037197      2.5577499999999986
     9   1     0.67604166666663268     0.63869373529105811      6.6309999999999976
    10   1      2.0281249999999664      1.9160812058731049      7.9887499999999978
    11   1     0.67604166666663268      3.1934686764551512      9.3464999999999971
    12   1      2.0281249999999664       4.470856147037197      10.704249999999996
    13   1      3.3802083333332997     0.63869373529105811      9.3464999999999971
    14   1       4.732291666666633      1.9160812058731049      10.704249999999996
    15   1      3.3802083333332997      3.1934686764551512      6.6309999999999976
    16   1       4.732291666666633       4.470856147037197      7.9887499999999978
    17   1     0.67604166666663268     0.63869373529105811      12.061999999999996
    18   1      2.0281249999999664      1.9160812058731049      13.419749999999997
    19   1     0.67604166666663268      3.1934686764551512      14.777499999999998
    20   1      2.0281249999999664       4.470856147037197      16.135249999999999
    21   1      3.3802083333332997     0.63869373529105811      14.777499999999998
    22   1       4.732291666666633      1.9160812058731049      16.135249999999999
    23   1      3.3802083333332997      3.1934686764551512      12.061999999999996
    24   1       4.732291666666633       4.470856147037197      13.419749999999997
    25   1     0.67604166666663268     0.63869373529105811      17.492999999999995
    26   1      2.0281249999999664      1.9160812058731049      18.850749999999994
    27   1     0.67604166666663268      3.1934686764551512      20.208499999999994
    28   1      2.0281249999999664       4.470856147037197      21.566249999999997
    29   1      3.3802083333332997     0.63869373529105811      20.208499999999994
    30   1       4.732291666666633      1.9160812058731049      21.566249999999997
    31   1      3.3802083333332997      3.1934686764551512      17.492999999999995
    32   1       4.732291666666633       4.470856147037197      18.850749999999994
    33   1     0.67604166666663268      5.7482436176192451      1.1999999999999993
    34   1      2.0281249999999664      7.0256310882012913      2.5577499999999986
    35   1     0.67604166666663268      8.3030185587833358      3.9154999999999989
    36   1      2.0281249999999664       9.580406029365383      5.2732499999999982
    37   1      3.3802083333332997      5.7482436176192451      3.9154999999999989
    38   1       4.732291666666633      7.0256310882012913      5.2732499999999982
    39   1      3.3802083333332997      8.3030185587833358      1.1999999999999993
    40   1       4.732291666666633       9.580406029365383      2.5577499999999986
    41   1     0.67604166666663268      5.7482436176192451      6.6309999999999976
    42   1      2.0281249999999664      7.0256310882012913      7.9887499999999978
    43   1     0.67604166666663268      8.3030185587833358      9.3464999999999971
    44   1      2.0281249999999664       9.580406029365383      10.704249999999996
    45   1      3.3802083333332997      5.7482436176192451      9.3464999999999971
    46   1       4.732291666666633      7.0256310882012913      10.704249999999996
    47   1      3.3802083333332997      8.3030185587833358      6.6309999999999976
    48   1       4.732291666666633       9.580406029365383      7.9887499999999978
    49   1     0.67604166666663268      5.7482436176192451      12.061999999999996
    50   1      2.0281249999999664      7.0256310882012913      13.419749999999997
    51   1     0.67604166666663268      8.3030185587833358      14.777499999999998
    52   1      2.0281249999999664       9.580406029365383      16.135249999999999
    53   1      3.3802083333332997      5.7482436176192451      14.777499999999998
    54   1       4.732291666666633      7.0256310882012913      16.135249999999999
    55   1      3.3802083333332997      8.3030185587833358      12.061999999999996
    56   1       4.732291666666633       9.580406029365383      13.419749999999997
    57   1     0.67604166666663268      5.7482436176192451      17.492999999999995
    58   1      2.0281249999999664      7.0256310882012913      18.850749999999994
    59   1     0.67604166666663268      8.3030185587833358      20.208499999999994
    60   1      2.0281249999999664       9.580406029365383      21.566249999999997
    61   1      3.3802083333332997      5.7482436176192451      20.208499999999994
    62   1       4.732291666666633      7.0256310882012913      21.566249999999997
    63   1      3.3802083333332997      8.3030185587833358      17.492999999999995
    64   1       4.732291666666633       9.580406029365383      18.850749999999994
    65   1     0.67604166666663268      10.857793499947432      1.1999999999999993
    66   1      2.0281249999999664      12.135180970529479      2.5577499999999986
    67   1     0.67604166666663268      13.412568441111526      3.9154999999999989
    68   1      2.0281249999999664      14.689955911693572      5.2732499999999982
    69   1      3.3802083333332997      10.857793499947432      3.9154999999999989
    70   1       4.732291666666633      12.135180970529479      5.2732499999999982
    71   1      3.3802083333332997      13.412568441111526      1.1999999999999993
    72   1       4.732291666666633      14.689955911693572      2.5577499999999986
    73   1     0.67604166666663268      10.857793499947432      6.6309999999999976
    74   1      2.0281249999999664      12.135180970529479      7.9887499999999978
    75   1     0.67604166666663268      13.412568441111526      9.3464999999999971
    76   1      2.0281249999999664      14.689955911693572      10.704249999999996
    77   1      3.3802083333332997      10.857793499947432      9.3464999999999971
    78   1       4.732291666666633      12.135180970529479      10.704249999999996
    79   1      3.3802083333332997      13.412568441111526      6.6309999999999976
    80   1       4.732291666666633      14.689955911693572      7.9887499999999978
    81   1     0.67604166666663268      10.857793499947432      12.061999999999996
    82   1      2.0281249999999664      12.135180970529479      13.419749999999997
    83   1     0.67604166666663268      13.412568441111526      14.777499999999998
    84   1      2.0281249999999664      14.689955911693572      16.135249999999999
    85   1      3.3802083333332997      10.857793499947432      14.777499999999998
    86   1       4.732291666666633      12.135180970529479      16.135249999999999
    87   1      3.3802083333332997      13.412568441111526      12.061999999999996
    88   1       4.732291666666633      14.689955911693572      13.419749999999997
    89   1     0.67604166666663268      10.857793499947432      17.492999999999995
    90   1      2.0281249999999664      12.135180970529479      18.850749999999994
    91   1     0.67604166666663268      13.412568441111526      20.208499999999994
    92   1      2.0281249999999664      14.689955911693572      21.566249999999997
    93   1      3.3802083333332997      10.857793499947432      20.208499999999994
    94   1       4.732291666666633      12.135180970529479      21.566249999999997
    95   1      3.3802083333332997      13.412568441111526      17.492999999999995
    96   1       4.732291666666633      14.689955911693572      18.850749999999994
    97   1     0.67604166666663268      15.967343382275619      1.1999999999999993
    98   1      2.0281249999999664      17.244730852857661      2.5577499999999986
    99   1     0.67604166666663268       18.52211832343971      3.9154999999999989
   100   1      2.0281249999999664      19.799505794021758      5.2732499999999982
   101   1      3.3802083333332997      15.967343382275619      3.9154999999999989
   102   1       4.732291666666633      17.244730852857661      5.2732499999999982
   103   1      3.3802083333332997       18.52211832343971      1.1999999999999993
   104   1       4.732291666666633      19.799505794021758      2.5577499999999986
   105   1     0.67604166666663268      15.967343382275619      6.6309999999999976
   106   1      2.0281249999999664      17.244730852857661      7.9887499999999978
   107   1     0.67604166666663268       18.52211832343971      9.3464999999999971
   108   1      2.0281249999999664      19.799505794021758      10.704249999999996
   109   1      3.3802083333332997      15.967343382275619      9.3464999999999971
   110   1       4.732291666666633      17.244730852857661      10.704249999999996
   111   1      3.3802083333332997       18.52211832343971      6.6309999999999976
   112   1       4.732291666666633      19.799505794021758      7.9887499999999978
   113   1     0.67604166666663268      15.967343382275619      12.061999999999996
   114   1      2.0281249999999664      17.244730852857661      13.419749999999997
   115   1     0.67604166666663268       18.52211832343971      14.777499999999998
   116   1      2.0281249999999664      19.799505794021758      16.135249999999999
   117   1      3.3802083333332997      15.967343382275619      14.777499999999998
   118   1       4.732291666666633      17.244730852857661      16.135249999999999
   119   1      3.3802083333332997       18.52211832343971      12.061999999999996
   120   1       4.732291666666633      19.799505794021758      13.419749999999997
   121   1     0.67604166666663268      15.967343382275619      17.492999999999995
   122   1      2.0281249999999664      17.244730852857661      18.850749999999994
   123   1     0.67604166666663268       18.52211832343971      20.208499999999994
   124   1      2.0281249999999664      19.799505794021758      21.566249999999997
   125   1      3.3802083333332997      15.967343382275619      20.208499999999994
   126   1       4.732291666666633      17.244730852857661      21.566249999999997
   127   1      3.3802083333332997       18.52211832343971      17.492999999999995
   128   1       4.732291666666633      19.799505794021758      18.850749999999994
   129   1     0.67604166666663268      21.076893264603807      1.1999999999999993
   130   1      2.0281249999999664      22.354280735185849      2.5577499999999986
   131   1     0.67604166666663268      23.631668205767895      3.9154999999999989
   132   1      2.0281249999999664      24.909055676349944      5.2732499999999982
   133   1      3.3802083333332997      21.076893264603807      3.9154999999999989
   134   1       4.732291666666633      22.354280735185849      5.2732499999999982
   135   1      3.3802083333332997      23.631668205767895      1.1999999999999993
   136   1       4.732291666666633      24.909055676349944      2.5577499999999986
   137   1     0.67604166666663268      21.076893264603807      6.6309999999999976
   138   1      2.0281249999999664      22.354280735185849      7.9887499999999978
   139   1     0.67604166666663268      23.631668205767895      9.3464999999999971
   140   1      2.0281249999999664      24.909055676349944      10.704249999999996
   141   1      3.3802083333332997      21.076893264603807      9.3464999999999971
   142   1       4.732291666666633      22.354280735185849      10.704249999999996
   143   1      3.3802083333332997      23.631668205767895      6.6309999999999976
   144   1       4.732291666666633      24.909055676349944      7.9887499999999978
   145   1     0.67604166666663268      21.076893264603807      12.061999999999996
   146   1      2.0281249999999664      22.354280735185849      13.419749999999997
   147   1     0.67604166666663268      23.631668205767895      14.777499999999998
   148   1      2.0281249999999664      24.909055676349944      16.135249999999999
   149   1      3.3802083333332997      21.076893264603807      14.777499999999998
   150   1       4.732291666666633      22.354280735185849      16.135249999999999
   151   1      3.3802083333332997      23.631668205767895      12.061999999999996
   152   1       4.732291666666633      24.909055676349944      13.419749999999997
   153   1     0.67604166666663268      21.076893264603807      17.492999999999995
   154   1      2.0281249999999664      22.354280735185849      18.850749999999994
   155   1     0.67604166666663268      23.631668205767895      20.208499999999994
   156   1      2.0281249999999664      24.909055676349944      21.566249999999997
   157   1      3.3802083333332997      21.076893264603807      20.208499999999994
   158   1       4.732291666666633      22.354280735185849      21.566249999999997
   159   1      3.3802083333332997      23.631668205767895      17.492999999999995
   160   1       4.732291666666633      24.909055676349944      18.850749999999994
   161   1     0.67604166666663268      26.186443146931992      1.1999999999999993
   162   1      2.0281249999999664      27.463830617514034      2.5577499999999986
   163   1     0.67604166666663268      28.741218088096083      3.9154999999999989
   164   1      2.0281249999999664      30.018605558678136      5.2732499999999982
   165   1      3.3802083333332997      26.186443146931992      3.9154999999999989
   166   1       4.732291666666633      27.463830617514034      5.2732499999999982
   167   1      3.3802083333332997      28.741218088096083      1.1999999999999993
   168   1       4.732291666666633      30.018605558678136      2.5577499999999986
   169   1     0.67604166666663268      26.186443146931992      6.6309999999999976
   170   1      2.0281249999999664      27.463830617514034      7.9887499999999978
   171   1     0.67604166666663268      28.741218088096083      9.3464999999999971
   172   1      2.0281249999999664      30.018605558678136      10.704249999999996
   173   1      3.3802083333332997      26.186443146931992      9.3464999999999971
   174   1       4.732291666666633      27.463830617514034      10.704249999999996
   175   1      3.3802083333332997      28.741218088096083      6.6309999999999976
   176   1       4.732291666666633      30.018605558678136      7.9887499999999978
   177   1     0.67604166666663268      26.186443146931992      12.061999999999996
   178   1      2.0281249999999664      27.463830617514034      13.419749999999997
   179   1     0.67604166666663268      28.741218088096083      14.777499999999998
   180   1      2.0281249999999664      30.018605558678136      16.135249999999999
   181   1      3.3802083333332997      26.186443146931992      14.777499999999998
   182   1       4.732291666666633      27.463830617514034      16.135249999999999
   183   1      3.3802083333332997      28.741218088096083      12.061999999999996
   184   1       4.732291666666633      30.018605558678136      13.419749999999997
   185   1     0.67604166666663268      26.186443146931992      17.492999999999995
   186   1      2.0281249999999664      27.463830617514034      18.850749999999994
   187   1     0.67604166666663268      28.741218088096083      20.208499999999994
   188   1      2.0281249999999664      30.018605558678136      21.566249999999997
   189   1      3.3802083333332997      26.186443146931992      20.208499999999994
   190   1       4.732291666666633      27.463830617514034      21.566249999999997
   191   1      3.3802083333332997      28.741218088096083      17.492999999999995
   192   1       4.732291666666633      30.018605558678136      18.850749999999994
   193   1      6.0843749999999659     0.63869373529105811      1.1999999999999993
   194   1      7.4364583333333005      1.9160812058731049      2.5577499999999986
   195   1      6.0843749999999659      3.1934686764551512      3.9154999999999989
   196   1      7.4364583333333005       4.470856147037197      5.2732499999999982
   197   1      8.7885416666666334     0.63869373529105811      3.9154999999999989
   198   1      10.140624999999966      1.9160812058731049      5.2732499999999982
   199   1      8.7885416666666334      3.1934686764551512      1.1999999999999993
   200   1      10.140624999999966       4.470856147037197      2.5577499999999986
   201   1      6.0843749999999659     0.63869373529105811      6.6309999999999976
   202   1      7.4364583333333005      1.9160812058731049      7.9887499999999978
   203   1      6.0843749999999659      3.1934686764551512      9.3464999999999971
   204   1      7.4364583333333005       4.470856147037197      10.704249999999996
   205   1      8.7885416666666334     0.63869373529105811      9.3464999999999971
   206   1      10.140624999999966      1.9160812058731049      10.704249999999996
   207   1      8.7885416666666334      3.1934686764551512      6.6309999999999976
   208   1      10.140624999999966       4.470856147037197      7.9887499999999978
   209   1      6.0843749999999659     0.63869373529105811      12.061999999999996
   210   1      7.4364583333333005      1.9160812058731049      13.419749999999997
   211   1      6.0843749999999659      3.1934686764551512      14.777499999999998
   212   1      7.4364583333333005       4.470856147037197      16.135249999999999
   213   1      8.7885416666666334     0.63869373529105811      14.777499999999998
   214   1      10.140624999999966      1.9160812058731049      16.135249999999999
   215   1      8.7885416666666334      3.1934686764551512      12.061999999999996
   216   1      10.140624999999966       4.470856147037197      13.419749999999997
   217   1      6.0843749999999659     0.63869373529105811      17.492999999999995
   218   1      7.4364583333333005      1.9160812058731049      18.850749999999994
   219   1      6.0843749999999659      3.1934686764551512      20.208499999999994
   220   1      7.4364583333333005       4.470856147037197      21.566249999999997
   221   1      8.7885416666666334     0.63869373529105811      20.208499999999994
   222   1      10.140624999999966      1.9160812058731049      21.566249999999997
   223   1      8.7885416666666334      3.1934686764551512      17.492999999999995
   224   1      10.140624999999966       4.470856147037197      18.850749999999994
   225   1      6.0843749999999659      5.7482436176192451      1.1999999999999993
   226   1      7.4364583333333005      7.0256310882012913      2.5577499999999986
   227   1      6.0843749999999659      8.3030185587833358      3.9154999999999989
   228   1      7.4364583333333005       9.580406029365383      5.2732499999999982
   229   1      8.7885416666666334      5.7482436176192451      3.9154999999999989
   230   1      10.140624999999966      7.0256310882012913      5.2732499999999982
   231   1      8.7885416666666334      8.3030185587833358      1.1999999999999993
   232   1      10.140624999999966       9.580406029365383      2.5577499999999986
   233   1      6.0843749999999659      5.7482436176192451      6.6309999999999976
   234   1      7.4364583333333005      7.0256310882012913      7.9887499999999978
   235   1      6.0843749999999659      8.3030185587833358      9.3464999999999971
   236   1      7.4364583333333005       9.580406029365383      10.704249999999996
   237   1      8.7885416666666334      5.7482436176192451      9.3464999999999971
   238   1      10.140624999999966      7.0256310882012913      10.704249999999996
   239   1      8.7885416666666334      8.3030185587833358      6.6309999999999976
   240   1      10.140624999999966       9.580406029365383      7.9887499999999978
   241   1      6.0843749999999659      5.7482436176192451      12.061999999999996
   242   1      7.4364583333333005      7.0256310882012913      13.419749999999997
   243   1      6.0843749999999659      8.3030185587833358      14.777499999999998
   244   1      7.4364583333333005       9.580406029365383      16.135249999999999
   245   1      8.7885416666666334      5.7482436176192451      14.777499999999998
   246   1      10.140624999999966      7.0256310882012913      16.135249999999999
   247   1      8.7885416666666334      8.3030185587833358      12.061999999999996
   248   1      10.140624999999966       9.580406029365383      13.419749999999997
   249   1      6.0843749999999659      5.7482436176192451      17.492999999999995
   250   1      7.4364583333333005      7.0256310882012913      18.850749999999994
   251   1      6.0843749999999659      8.3030185587833358      20.208499999999994
   252   1      7.4364583333333005       9.580406029365383      21.566249999999997
   253   1      8.7885416666666334      5.7482436176192451      20.208499999999994
   254   1      10.140624999999966      7.0256310882012913      21.566249999999997
   255   1      8.7885416666666334      8.3030185587833358      17.492999999999995
   256   1      10.140624999999966       9.580406029365383      18.850749999999994
   257   1      6.0843749999999659      10.857793499947432      1.1999999999999993
   258   1      7.4364583333333005      12.135180970529479      2.5577499999999986
   259   1      6.0843749999999659      13.412568441111526      3.9154999999999989
   260   1      7.4364583333333005      14.689955911693572      5.2732499999999982
   261   1      8.7885416666666334      10.857793499947432      3.9154999999999989
   262   1      10.140624999999966      12.135180970529479      5.2732499999999982
   263   1      8.7885416666666334      13.412568441111526      1.1999999999999993
   264   1      10.140624999999966      14.689955911693572      2.5577499999999986
   265   1      6.0843749999999659      10.857793499947432      6.6309999999999976
   266   1      7.4364583333333005      12.135180970529479      7.9887499999999978
   267   1      6.0843749999999659      13.412568441111526      9.3464999999999971
   268   1      7.4364583333333005      14.689955911693572      10.704249999999996
   269   1      8.7885416666666334      10.857793499947432      9.3464999999999971
   270   1      10.140624999999966      12.135180970529479      10.704249999999996
   271   1      8.7885416666666334      13.412568441111526      6.6309999999999976
   272   1      10.140624999999966      14.689955911693572      7.9887499999999978
   273   1      6.0843749999999659      10.857793499947432      12.061999999999996
   274   1      7.4364583333333005      12.135180970529479      13.419749999999997
   275   1      6.0843749999999659      13.412568441111526      14.777499999999998
   276   1      7.4364583333333005      14.689955911693572      16.135249999999999
   277   1      8.7885416666666334      10.857793499947432      14.777499999999998
   278   1      10.140624999999966      12.135180970529479      16.135249999999999
   279   1      8.7885416666666334      13.412568441111526      12.061999999999996
   280   1      10.140624999999966      14.689955911693572      13.419749999999997
   281   1      6.0843749999999659      10.857793499947432      17.492999999999995
   282   1      7.4364583333333005      12.135180970529479      18.850749999999994
   283   1      6.0843749999999659      13.412568441111526      20.208499999999994
   284   1      7.4364583333333005      14.689955911693572      21.566249999999997
   285   1      8.7885416666666334      10.857793499947432      20.208499999999994
   286   1      10.140624999999966      12.135180970529479      21.566249999999997
   287   1      8.7885416666666334      13.412568441111526      17.492999999999995
   288   1      10.140624999999966      14.689955911693572      18.850749999999994
   289   1      6.0843749999999659      15.967343382275619      1.1999999999999993
   290   1      7.4364583333333005      17.244730852857661      2.5577499999999986
   291   1      6.0843749999999659       18.52211832343971      3.9154999999999989
   292   1      7.4364583333333005      19.799505794021758      5.2732499999999982
   293   1      8.7885416666666334      15.967343382275619      3.9154999999999989
   294   1      10.140624999999966      17.244730852857661      5.2732499999999982
   295   1      8.7885416666666334       18.52211832343971      1.1999999999999993
   296   1      10.140624999999966      19.799505794021758      2.5577499999999986
   297   1      6.0843749999999659      15.967343382275619      6.6309999999999976
   298   1      7.4364583333333005      17.244730852857661      7.9887499999999978
   299   1      6.0843749999999659       18.52211832343971      9.3464999999999971
   300   1      7.4364583333333005      19.799505794021758      10.704249999999996
   301   1      8.7885416666666334      15.967343382275619      9.3464999999999971
   302   1      10.140624999999966      17.244730852857661      10.704249999999996
   303   1      8.7885416666666334       18.52211832343971      6.6309999999999976
   304   1      10.140624999999966      19.799505794021758      7.9887499999999978
   305   1      6.0843749999999659      15.967343382275619      12.061999999999996
   306   1      7.4364583333333005      17.244730852857661      13.419749999999997
   307   1      6.0843749999999659       18.52211832343971      14.777499999999998
   308   1      7.4364583333333005      19.799505794021758      16.135249999999999
   309   1      8.7885416666666334      15.967343382275619      14.777499999999998
   310   1      10.140624999999966      17.244730852857661      16.135249999999999
   311   1      8.7885416666666334       18.52211832343971      12.061999999999996
   312   1      10.140624999999966      19.799505794021758      13.419749999999997
   313   1      6.0843749999999659      15.967343382275619      17.492999999999995
   314   1      7.4364583333333005      17.244730852857661      18.850749999999994
   315   1      6.0843749999999659       18.52211832343971      20.208499999999994
   316   1      7.4364583333333005      19.799505794021758      21.566249999999997
   317   1      8.7885416666666334      15.967343382275619      20.208499999999994
   318   1      10.140624999999966      17.244730852857661      21.566249999999997
   319   1      8.7885416666666334       18.52211832343971      17.492999999999995
   320   1      10.140624999999966      19.799505794021758      18.850749999999994
   321   1      6.0843749999999659      21.076893264603807      1.1999999999999993
   322   1      7.4364583333333005      22.354280735185849      2.5577499999999986
   323   1      6.0843749999999659      23.631668205767895      3.9154999999999989
   324   1      7.4364583333333005      24.909055676349944      5.2732499999999982
   325   1      8.7885416666666334      21.076893264603807      3.9154999999999989
   326   1      10.140624999999966      22.354280735185849      5.2732499999999982
   327   1      8.7885416666666334      23.631668205767895      1.1999999999999993
   328   1      10.140624999999966      24.909055676349944      2.5577499999999986
   329   1      6.0843749999999659      21.076893264603807      6.6309999999999976
   330   1      7.4364583333333005      22.354280735185849      7.9887499999999978
   331   1      6.0843749999999659      23.631668205767895      9.3464999999999971
   332   1      7.4364583333333005      24.909055676349944      10.704249999999996
   333   1      8.7885416666666334      21.076893264603807      9.3464999999999971
   334   1      10.140624999999966      22.354280735185849      10.704249999999996
   335   1      8.7885416666666334      23.631668205767895      6.6309999999999976
   336   1      10.140624999999966      24.909055676349944      7.9887499999999978
   337   1      6.0843749999999659      21.076893264603807      12.061999999999996
   338   1      7.4364583333333005      22.354280735185849      13.419749999999997
   339   1      6.0843749999999659      23.631668205767895      14.777499999999998
   340   1      7.4364583333333005      24.909055676349944      16.135249999999999
   341   1      8.7885416666666334      21.076893264603807      14.777499999999998
   342   1      10.140624999999966      22.354280735185849      16.135249999999999
   343   1      8.7885416666666334      23.631668205767895      12.061999999999996
   344   1      10.140624999999966      24.909055676349944      13.419749999999997
   345   1      6.0843749999999659      21.076893264603807      17.492999999999995
   346   1      7.4364583333333005      22.354280735185849      18.850749999999994
   347   1      6.0843749999999659      23.631668205767895      20.208499999999994
   348   1      7.4364583333333005      24.909055676349944      21.566249999999997
   349   1      8.7885416666666334      21.076893264603807      20.208499999999994
   350   1      10.140624999999966      22.354280735185849      21.566249999999997
   351   1      8.7885416666666334      23.631668205767895      17.492999999999995
   352   1      10.140624999999966      24.909055676349944      18.850749999999994
   353   1      6.0843749999999659      26.186443146931992      1.1999999999999993
   354   1      7.4364583333333005      27.463830617514034      2.5577499999999986
   355   1      6.0843749999999659      28.741218088096083      3.9154999999999989
   356   1      7.4364583333333005      30.018605558678136      5.2732499999999982
   357   1      8.7885416666666334      26.186443146931992      3.9154999999999989
   358   1      10.140624999999966      27.463830617514034      5.2732499999999982
   359   1      8.7885416666666334      28.741218088096083      1.1999999999999993