LAMMPS (22 Jul 2025)
  using 4 OpenMP thread(s) per MPI task
units           metal
dimension       3
boundary        p p p
atom_style      atomic

read_data       Ti_hcp.data
Reading data file ...
  orthogonal box = (0 0 0) to (20.65 20.4382 23.4)
  2 by 1 by 2 MPI processor grid
  reading atoms ...
  560 atoms
  read_data CPU = 0.004 seconds

mass            1 47.867   # Ti

pair_style      tersoff
pair_coeff      * * TSCBOP.tersoff Ti

velocity        all create 300.0 12345
fix             1 all npt temp 300.0 300.0 0.1 aniso 0.0 0.0 1.0

thermo          100
thermo_style    custom step temp pe lx ly lz press
dump            1 all custom 1000 dump.tersoff.lammpstrj id type x y z

run             50000
Neighbor list info ...
  update: every = 1 steps, delay = 0 steps, check = yes
  max neighbors/atom: 2000, page size: 100000
  master list distance cutoff = 5.8838
  ghost atom cutoff = 5.8838
  binsize = 2.9419, bins = 8 7 8
  1 neighbor lists, perpetual/occasional/extra = 1 0 0
  (1) pair tersoff, perpetual
      attributes: full, newton on
      pair build: full/bin/atomonly
      stencil: full/bin/3d
      bin: standard
Per MPI rank memory allocation (min/avg/max) = 5.732 | 5.732 | 5.732 Mbytes
   Step          Temp          PotEng           Lx             Ly             Lz           Press     
         0   300           -2725.649       20.65          20.4382        23.4          -18875.974    
       100   166.47265     -2714.7853      20.368392      20.144415      23.461498      12210.257    
       200   202.19151     -2713.8149      20.474917      20.270379      23.556845     -4943.0076    
       300   213.95923     -2710.0483      20.532364      20.316753      23.394399     -869.49128    
       400   269.58014     -2709.2664      20.434882      20.228112      23.495959      4987.3351    
       500   298.78805     -2706.7697      20.522185      20.319328      23.550554     -6259.1382    
       600   308.74863     -2703.9468      20.479256      20.269987      23.425552      5269.7858    
       700   321.84517     -2703.1772      20.49878       20.286934      23.58104      -3401.0528    
       800   345.55095     -2706.1749      20.508364      20.288915      23.481148     -18.701287    
       900   299.21769     -2705.6057      20.503552      20.285104      23.449404      1628.6987    
      1000   278.07088     -2705.398       20.469678      20.298366      23.570866     -3143.2055    
      1100   291.78538     -2706.0498      20.486002      20.261918      23.449304      3516.9101    
      1200   312.04072     -2705.68        20.53678       20.300005      23.49609      -2732.8933    
      1300   320.09843     -2704.8647      20.443757      20.275092      23.547155      1148.7286    
      1400   288.60575     -2702.7435      20.504453      20.288337      23.48021       418.83835    
      1500   320.27089     -2705.9744      20.524673      20.282672      23.511096     -2322.4391    
      1600   307.42738     -2706.2511      20.43478       20.278523      23.508107      2698.5311    
      1700   295.02386     -2705.7949      20.518565      20.312389      23.494531     -3010.1279    
      1800   308.27797     -2706.0625      20.497717      20.244952      23.499643      1507.7643    
      1900   296.96197     -2704.2504      20.480774      20.283304      23.529663     -458.78543    
      2000   319.68121     -2704.8623      20.480654      20.336267      23.489435     -1157.2223    
      2100   290.83416     -2703.4728      20.488534      20.249675      23.495388      2827.3538    
      2200   284.31276     -2704.2548      20.523872      20.275743      23.530377     -2575.7436    
      2300   301.49429     -2705.9538      20.436989      20.332204      23.458443      2142.4166    
      2400   314.56773     -2706.6217      20.492396      20.277599      23.5323       -1513.6331    
      2500   299.40371     -2704.7529      20.554586      20.230587      23.506817     -651.57815    
      2600   307.7146      -2704.4802      20.44977       20.324827      23.465984      1956.5531    
      2700   313.67861     -2704.8138      20.460742      20.316923      23.564069     -2882.0712    
      2800   303.21134     -2705.0167      20.524471      20.218167      23.48333       2580.6889    
      2900   276.05885     -2704.467       20.508665      20.330609      23.464792     -1601.0519    
      3000   282.43926     -2704.9644      20.425678      20.300957      23.538246      734.06269    
      3100   295.88101     -2704.6414      20.523764      20.236477      23.498872      1232.5203    
      3200   306.64152     -2704.5875      20.557212      20.298484      23.470727     -2605.9599    
      3300   289.68284     -2703.6645      20.402688      20.274023      23.5483        3442.1622    
      3400   298.64861     -2704.9601      20.512306      20.294316      23.52669      -2817.9846    
      3500   287.99848     -2704.7689      20.539773      20.270039      23.431497      1694.6061    
      3600   288.69662     -2705.0644      20.422861      20.288031      23.561876      564.7197     
      3700   298.1578      -2704.989       20.505705      20.303557      23.507377     -1823.6383    
      3800   322.45357     -2705.2998      20.534893      20.240331      23.453411      2391.6419    
      3900   302.96499     -2703.6039      20.457936      20.30418       23.585462     -2539.8467    
      4000   310.715       -2705.4773      20.457221      20.311251      23.477663      1645.7       
      4100   290.11296     -2705.724       20.52392       20.255756      23.499381     -195.21815    
      4200   289.68215     -2705.5204      20.486975      20.27619       23.5374       -1251.3623    
      4300   299.46095     -2704.8542      20.4546        20.317597      23.456444      2512.0501    
      4400   317.80232     -2705.4963      20.503839      20.290285      23.548625     -3072.2722    
      4500   296.43153     -2704.2279      20.506493      20.23269       23.498706      2471.6333    
      4600   303.34659     -2706.0275      20.489925      20.315675      23.491538     -1175.8206    
      4700   275.83762     -2705.5123      20.438084      20.296556      23.544713     -60.030992    
      4800   286.30377     -2705.4613      20.517374      20.263759      23.450727      2029.7468    
      4900   306.1774      -2705.7365      20.521001      20.31042       23.508855     -3316.5024    
      5000   293.40492     -2704.2289      20.394055      20.265899      23.56289       3512.7012    
      5100   308.51002     -2705.0187      20.555701      20.304154      23.463719     -2660.5088    
      5200   310.27628     -2705.2223      20.517904      20.263535      23.487817      396.73379    
      5300   287.84063     -2704.9782      20.409694      20.267387      23.582864      1293.7353    
      5400   268.27434     -2704.7062      20.533582      20.334533      23.43867      -2007.1877    
      5500   298.50096     -2706.2247      20.489463      20.237469      23.489135      2844.8665    
      5600   294.78502     -2704.3597      20.461614      20.294038      23.583833     -2621.3277    
      5700   309.36251     -2705.0173      20.501421      20.317179      23.429756      1355.6402    
      5800   293.81536     -2704.3702      20.490474      20.245454      23.547509      190.24573    
      5900   310.24644     -2705.9778      20.473232      20.2777        23.563212     -1778.0432    
      6000   295.47588     -2706.0433      20.481226      20.311365      23.432677      2100.1383    
      6100   287.78358     -2706.1946      20.506938      20.264805      23.546779     -2343.1907    
      6200   282.72232     -2704.5905      20.469561      20.261053      23.515961      1839.1885    
      6300   303.58534     -2704.3905      20.48197       20.331422      23.476666     -705.93698    
      6400   305.77898     -2704.3868      20.483997      20.270689      23.546761     -607.95852    
      6500   305.66664     -2705.2938      20.485815      20.24025       23.524251      1550.4592    
      6600   288.02679     -2705.2402      20.513917      20.323016      23.477613     -2314.6995    
      6700   280.69818     -2704.8581      20.45846       20.270095      23.496713      2600.9319    
      6800   297.9045      -2703.7355      20.494486      20.262689      23.56111      -1337.3074    
      6900   320.69529     -2704.768       20.501705      20.303639      23.466165      386.10289    
      7000   302.37822     -2704.7416      20.480986      20.282993      23.499324      797.95121    
      7100   290.65702     -2704.954       20.49263       20.254967      23.574547     -2096.2834    
      7200   301.24863     -2705.6998      20.481129      20.290079      23.449267      2600.8519    
      7300   304.90801     -2705.2176      20.48082       20.317493      23.527339     -2317.5988    
      7400   308.23991     -2703.5964      20.487438      20.239273      23.541479      1317.9301    
      7500   305.55091     -2703.4783      20.530835      20.289683      23.45167       564.96567    
      7600   310.22561     -2705.1965      20.475858      20.305829      23.544673     -2302.7995    
      7700   286.02015     -2704.0646      20.465448      20.230093      23.522947      3646.6209    
      7800   294.22876     -2704.8253      20.555733      20.327154      23.455745     -3464.6451    
      7900   300.70474     -2704.9975      20.424793      20.270346      23.539314      2765.704     
      8000   318.66169     -2705.5788      20.482344      20.262534      23.559688     -1151.9088    
      8100   308.88923     -2703.6262      20.57272       20.311857      23.42406      -1531.4768    
      8200   309.74871     -2703.8642      20.411207      20.254646      23.56192       3625.6888    
      8300   299.80318     -2705.0802      20.481305      20.3258        23.562301     -4412.1792    
      8400   281.09352     -2704.2358      20.534884      20.272307      23.382516      4151.0046    
      8500   290.00152     -2704.5508      20.469552      20.235292      23.622704     -1767.6219    
      8600   306.51399     -2704.9271      20.461236      20.310482      23.514887     -312.77307    
      8700   321.75939     -2704.3372      20.517451      20.305071      23.414211      2072.2446    
      8800   304.31658     -2702.6502      20.487362      20.248351      23.628942     -3073.941     
      8900   302.03145     -2703.8672      20.474203      20.277268      23.46635       3235.5851    
      9000   290.15089     -2703.9904      20.523299      20.319054      23.472748     -1912.1111    
      9100   298.83281     -2704.9653      20.456408      20.218466      23.59913       742.45818    
      9200   291.7438      -2704.7093      20.490916      20.303606      23.461314      799.35436    
      9300   296.53271     -2704.8874      20.5092        20.312324      23.486446     -1818.8714    
      9400   301.38734     -2704.232       20.45918       20.209449      23.575989      2424.3262    
      9500   309.42511     -2703.9234      20.529589      20.316325      23.472394     -1930.0011    
      9600   286.3954      -2702.9333      20.486088      20.275629      23.498754      1528.4079    
      9700   291.88803     -2705.1856      20.473639      20.227327      23.584783      26.989905    
      9800   303.40739     -2706.0875      20.511985      20.322027      23.454738     -1213.9537    
      9900   296.95203     -2704.9593      20.460261      20.270906      23.515068      1782.9177    
     10000   303.86976     -2704.4155      20.499279      20.260345      23.564975     -1769.4006    
     10100   306.27135     -2703.8589      20.522376      20.287807      23.444796      1361.7161    
     10200   307.32451     -2703.3275      20.46069       20.28093       23.562592     -517.52133    
     10300   303.03824     -2704.1366      20.494471      20.270357      23.530087     -527.77944    
     10400   293.59535     -2704.9302      20.525247      20.274961      23.445511      1331.5851    
     10500   294.31953     -2705.4205      20.453996      20.287369      23.572587     -1732.8092    
     10600   305.33416     -2705.669       20.465637      20.277603      23.500121      1454.7569    
     10700   314.33055     -2704.6783      20.56012       20.260352      23.482252     -1236.7012    
     10800   312.07927     -2703.8231      20.452714      20.264519      23.577541     -134.11913    
     10900   298.61867     -2703.6981      20.456999      20.32278       23.47763       1034.4522    
     11000   308.4404      -2705.1914      20.546829      20.270538      23.492139     -1787.4401    
     11100   305.57424     -2705.3167      20.464564      20.220234      23.563978      1845.7944    
     11200   295.10675     -2704.6316      20.44982       20.36064       23.486381     -1162.1776    
     11300   311.16116     -2705.3723      20.515372      20.270509      23.48626       86.000613    
     11400   307.81743     -2704.3082      20.516052      20.197453      23.55949       919.97925    
     11500   302.67369     -2703.5984      20.46299       20.361688      23.491539     -1769.9262    
     11600   292.94911     -2703.8736      20.46155       20.28563       23.490259      2155.831     
     11700   293.96296     -2705.2666      20.555464      20.198076      23.556578     -1432.8319    
     11800   301.28964     -2706.2225      20.45391       20.332896      23.465414      630.40429    
     11900   301.17968     -2705.5408      20.439444      20.319339      23.516428      35.970335    
     12000   307.32435     -2705.1392      20.553743      20.212579      23.539932     -1284.648     
     12100   290.45769     -2703.998       20.495341      20.280825      23.459484      2316.9453    
     12200   301.79057     -2705.0184      20.438564      20.333288      23.545972     -2099.4068    
     12300   311.4703      -2705.7839      20.512726      20.227254      23.51504       1113.9869    
     12400   294.95764     -2704.4908      20.534355      20.260709      23.484376     -70.173734    
     12500   309.90569     -2704.9803      20.426983      20.326679      23.547294     -1035.9362    
     12600   314.41386     -2705.2797      20.499723      20.270044      23.482689      1372.3549    
     12700   303.96424     -2705.1582      20.542418      20.248244      23.523241     -1730.1241    
     12800   285.26267     -2705.0533      20.410867      20.301552      23.535287      1729.7173    
     12900   291.98153     -2705.9572      20.494869      20.323258      23.455448     -533.19462    
     13000   293.13193     -2704.494       20.541685      20.227426      23.521729     -404.20413    
     13100   324.05881     -2705.1894      20.434945      20.27414       23.559475      1034.75      
     13200   292.86515     -2703.5738      20.493879      20.342245      23.469363     -1275.5796    
     13300   312.82951     -2705.8225      20.506473      20.236985      23.511269      1049.2431    
     13400   294.42884     -2705.5479      20.472482      20.276147      23.54221      -627.43453    
     13500   300.33332     -2706.0952      20.486595      20.333117      23.445895     -155.61517    
     13600   283.2518      -2702.8492      20.486228      20.244344      23.540865      1285.7791    
     13700   313.38555     -2704.0438      20.488059      20.267228      23.55462      -1055.3843    
     13800   312.29486     -2704.8601      20.497749      20.343482      23.413627      782.0708     
     13900   281.42533     -2704.1045      20.462823      20.253114      23.566864      204.86418    
     14000   295.37719     -2705.1759      20.482022      20.251723      23.554926     -455.64106    
     14100   289.64216     -2704.2112      20.502158      20.346023      23.397798      978.38836    
     14200   298.78107     -2703.9317      20.451439      20.275189      23.582507     -1067.8942    
     14300   319.77566     -2703.4488      20.496381      20.228076      23.544769      1446.5489    
     14400   314.60505     -2703.7034      20.548999      20.323748      23.419748     -1000.2457    
     14500   293.59561     -2703.8336      20.4285        20.283675      23.573269      254.66993    
     14600   301.28933     -2705.0595      20.468599      20.272062      23.519628      1019.3508    
     14700   283.604       -2704.2314      20.565556      20.28914       23.440803     -1359.2442    
     14800   302.29232     -2705.4712      20.43787       20.25585       23.557818      1581.8067    
     14900   304.81788     -2705.0194      20.458585      20.324993      23.519348     -1308.6909    
     15000   290.54703     -2702.8401      20.527451      20.280069      23.464544      730.38834    
     15100   311.70029     -2704.2646      20.484609      20.228617      23.558848      848.00921    
     15200   289.92574     -2704.5073      20.457586      20.350095      23.498135     -1603.1259    
     15300   293.78908     -2705.3897      20.484096      20.286344      23.463306      1848.1516    
     15400   286.65357     -2704.5235      20.531631      20.212786      23.565858     -1250.3776    
     15500   317.93854     -2706.0297      20.476262      20.306303      23.483164      245.19526    
     15600   311.28424     -2704.6508      20.444331      20.318981      23.509482      415.21274    
     15700   304.40856     -2702.1538      20.528352      20.245016      23.547139     -1253.3374    
     15800   321.99483     -2703.6652      20.512703      20.269103      23.463867      1938.7062    
     15900   316.43862     -2704.751       20.438458      20.342902      23.548613     -2404.2793    
     16000   300.02886     -2704.7531      20.481791      20.269242      23.500514      1367.5153    
     16100   295.52602     -2705.1648      20.557938      20.243894      23.473754     -413.19838    
     16200   293.33277     -2705.3567      20.447042      20.303921      23.547963     -1066.6602    
     16300   307.48976     -2706.0708      20.464286      20.282438      23.48482       1934.7986    
     16400   304.18932     -2704.1725      20.549129      20.268404      23.516621     -2535.594     
     16500   321.06585     -2704.6838      20.445051      20.269333      23.529967      2172.0273    
     16600   292.56384     -2703.8057      20.488321      20.324613      23.489719     -1168.9768    
     16700   295.21923     -2705.1298      20.51933       20.258417      23.501101     -119.99436    
     16800   294.30289     -2704.9836      20.464626      20.250827      23.531798      1851.115     
     16900   285.58321     -2704.0225      20.506193      20.33669       23.483482     -2375.0454    
     17000   309.32694     -2705.0176      20.488531      20.244593      23.485751      3084.9606    
     17100   308.68771     -2703.9135      20.494991      20.275457      23.572931     -2579.3829    
     17200   310.33664     -2703.4649      20.470254      20.351651      23.432577      1228.0813    
     17300   300.30854     -2704.5596      20.498192      20.25515       23.511923      729.13252    
     17400   298.18407     -2705.411       20.515631      20.245613      23.584806     -3065.8769    
     17500   304.75477     -2705.716       20.447854      20.332192      23.396364      4574.2147    
     17600   284.74969     -2703.7481      20.511166      20.303422      23.563677     -4566.9595    
     17700   307.76571     -2704.0141      20.493329      20.200054      23.522333      3661.8314    
     17800   311.21694     -2702.8464      20.490848      20.369737      23.445189     -1108.4586    
     17900   304.31701     -2703.7159      20.467323      20.316593      23.543709     -1972.0033    
     18000   305.28719     -2705.0771      20.514389      20.179207      23.497582      4619.3346    
     18100   295.88423     -2704.7587      20.541275      20.342782      23.493373     -5332.2559    
     18200   296.2668      -2704.9868      20.393614      20.30067       23.500885      4358.9018    
     18300   291.256       -2704.4607      20.535039      20.24441       23.532582     -1654.8525    
     18400   296.00262     -2703.7407      20.534447      20.275226      23.480176     -396.18057    
     18500   318.8423      -2704.378       20.424574      20.306637      23.503982      2506.0084    
     18600   302.68693     -2703.7854      20.510172      20.307124      23.536993     -3369.7933    
     18700   294.17482     -2705.3309      20.52201       20.223756      23.456465      3640.3721    
     18800   302.21587     -2706.0175      20.471641      20.314839      23.535465     -2592.216     
     18900   293.49682     -2704.557       20.455657      20.296812      23.5084        790.62755    
     19000   307.59754     -2704.3909      20.519908      20.255955      23.487199      1018.055     
     19100   321.24297     -2705.1127      20.512542      20.299078      23.519352     -2604.9396    
     19200   290.59941     -2704.8616      20.426835      20.306585      23.485687      2988.5669    
     19300   290.03814     -2705.8827      20.530523      20.260091      23.531191     -2613.3099    
     19400   289.11264     -2704.989       20.513813      20.254907      23.476353      1491.9853    
     19500   311.88708     -2705.2638      20.443164      20.341871      23.498965     -367.52368    
     19600   309.19192     -2704.6357      20.46456       20.302641      23.548205     -1502.5395    
     19700   298.66661     -2704.3087      20.5436        20.214462      23.470721      2722.364     
     19800   293.44646     -2705.7964      20.481963      20.33725       23.509818     -3032.0788    
     19900   287.44881     -2706.3943      20.425998      20.295877      23.503568      2143.7062    
     20000   300.4427      -2706.536       20.541905      20.259498      23.487788     -1160.7822    
     20100   308.42037     -2705.85        20.496969      20.272342      23.527595     -1133.066     
     20200   310.24155     -2705.0188      20.413913      20.328332      23.501403      1769.9035    
     20300   305.67103     -2704.4695      20.555516      20.279983      23.496807     -2592.8812    
     20400   307.38401     -2705.3682      20.487055      20.216478      23.535906      2280.5912    
     20500   291.71237     -2706.1152      20.440889      20.349369      23.510865     -1727.0682    
     20600   290.09058     -2705.7715      20.483182      20.321779      23.455372      292.11309    
     20700   303.28878     -2705.2169      20.533805      20.184822      23.545242      1105.7205    
     20800   306.06886     -2704.8896      20.488192      20.327046      23.509314     -2416.4331    
     20900   305.49204     -2704.8025      20.440094      20.330067      23.459145      2481.1912    
     21000   295.67773     -2704.7227      20.509658      20.245406      23.569963     -1839.8913    
     21100   296.16076     -2706.3591      20.517296      20.271674      23.462342      709.52794    
     21200   277.99466     -2706.0015      20.446802      20.342219      23.465693      443.42306    
     21300   293.76824     -2705.9054      20.492278      20.252357      23.562255     -1430.6406    
     21400   300.74287     -2705.5558      20.512474      20.256296      23.467384      1865.5383    
     21500   307.45955     -2705.3892      20.470501      20.340561      23.507795     -2291.1594    
     21600   300.90148     -2704.1758      20.446176      20.280005      23.528767      1582.5583    
     21700   323.37566     -2705.325       20.566777      20.243427      23.482032     -888.39061    
     21800   304.91822     -2705.4614      20.478143      20.307248      23.507471     -924.71487    
     21900   285.23232     -2705.3669      20.430478      20.298018      23.510164      1846.8982    
     22000   281.86665     -2704.7751      20.532443      20.279714      23.501903     -2024.6414    
     22100   304.65965     -2705.2798      20.508642      20.226312      23.504794      1873.6836    
     22200   310.1553      -2705.143       20.452725      20.340684      23.515575     -1491.1498    
     22300   308.52177     -2705.096       20.48368       20.294992      23.498248     -11.810366    
     22400   306.12751     -2705.1282      20.50815       20.219022      23.531558      1260.4003    
     22500   297.36732     -2705.088       20.505406      20.337488      23.480049     -2674.6556    
     22600   282.38192     -2705.5381      20.412935      20.317075      23.469811      3626.4537    
     22700   280.32107     -2705.9415      20.541845      20.204759      23.589945     -2848.5981    
     22800   294.66074     -2705.4319      20.530917      20.293184      23.411145      1268.8653    
     22900   286.30983     -2703.7801      20.411164      20.343945      23.503107      1232.0314    
     23000   316.67829     -2705.5758      20.507295      20.239961      23.61345      -3854.5382    
     23100   298.12575     -2704.3637      20.561795      20.228851      23.375906      5513.5621    
     23200   291.49792     -2704.7711      20.429691      20.386821      23.557293     -5043.8183    
     23300   283.48609     -2705.0826      20.440938      20.233407      23.547886      3024.8552    
     23400   285.68768     -2705.6198      20.596962      20.25736       23.408973     -245.19011    
     23500   309.09674     -2706.0032      20.456974      20.329371      23.531846     -2336.6284    
     23600   315.30768     -2705.068       20.411595      20.273327      23.5433        2875.8967    
     23700   316.07677     -2705.0099      20.60571       20.259103      23.472497     -3450.9868    
     23800   311.07537     -2705.6989      20.473455      20.271497      23.493087      1734.5483    
     23900   293.91129     -2705.9202      20.444815      20.301979      23.53923      -672.85531    
     24000   280.84485     -2704.9002      20.530927      20.274834      23.469135     -317.11475    
     24100   293.05582     -2705.3074      20.491205      20.249981      23.502179      1529.1536    
     24200   303.11721     -2705.3233      20.463624      20.317894      23.539386     -2293.5855    
     24300   307.54195     -2704.7177      20.518881      20.273327      23.447181      1870.0436    
     24400   306.9175      -2704.2835      20.499873      20.269169      23.528702     -727.26884    
     24500   298.45512     -2704.8888      20.465832      20.294327      23.52986      -677.62683    
     24600   281.50374     -2705.2319      20.484692      20.299821      23.45186       1601.4339    
     24700   285.61708     -2705.2572      20.527217      20.255689      23.529593     -2007.7851    
     24800   309.03925     -2705.4994      20.4691        20.270867      23.499618      1862.8067    
     24900   312.78074     -2705.413       20.493898      20.317046      23.490895     -1464.0193    
     25000   298.42683     -2704.5484      20.474641      20.275911      23.524272      200.8868     
     25100   316.56203     -2705.5707      20.500156      20.277605      23.483479      688.31549    
     25200   284.827       -2704.5739      20.504142      20.298174      23.51244      -2176.2424    
     25300   288.23486     -2705.7501      20.431591      20.261126      23.522796      2843.1558    
     25400   302.79393     -2706.1541      20.518487      20.327339      23.477856     -3107.88      
     25500   302.68069     -2704.2721      20.508495      20.243019      23.495738      1732.9651    
     25600   308.34347     -2704.236       20.431719      20.285623      23.563649      515.87902    
     25700   291.06054     -2703.8988      20.517534      20.337991      23.464751     -2397.5167    
     25800   298.43234     -2705.0619      20.500716      20.216539      23.477971      4125.9123    
     25900   304.91804     -2706.0829      20.478446      20.287835      23.603078     -4713.7401    
     26000   301.1318      -2707.1155      20.461172      20.331163      23.408683      2543.8234    
     26100   290.44424     -2706.7795      20.533383      20.233258      23.515535     -894.28736    
     26200   290.64973     -2705.121       20.490223      20.253924      23.569346     -1833.1178    
     26300   311.65336     -2705.1955      20.451608      20.337212      23.40778       3760.8993    
     26400   300.92617     -2704.455       20.495079      20.306021      23.56946      -4491.9387    
     26500   291.13854     -2704.148       20.487611      20.202462      23.513236      4061.6775    
     26600   298.39849     -2705.6329      20.498283      20.358768      23.445878     -2060.6951    
     26700   284.47016     -2705.912       20.445768      20.2886        23.545875     -291.65758    
     26800   282.34798     -2705.6616      20.493403      20.213369      23.5179        2396.6951    
     26900   299.15116     -2704.6349      20.54631       20.326861      23.468286     -3485.4518    
     27000   310.00303     -2704.8836      20.412416      20.282775      23.521024      3439.1799    
     27100   290.46355     -2703.6463      20.515666      20.27494       23.535555     -2214.9948    
     27200   298.00616     -2704.7529      20.519556      20.293925      23.444776      663.80247    
     27300   276.65532     -2704.7709      20.444933      20.26371       23.542491      1291.132     
     27400   293.15201     -2705.7371      20.500322      20.299544      23.516779     -2316.1244    
     27500   309.52644     -2705.345       20.515945      20.264563      23.439057      2666.2959    
     27600   305.12544     -2704.1843      20.455931      20.306265      23.570353     -2528.633     
     27700   306.25933     -2704.6641      20.487803      20.293712      23.470323      1256.9704    
     27800   308.53013     -2705.7426      20.511322      20.278031      23.483128     -32.885667    
     27900   292.75788     -2705.3595      20.457987      20.284225      23.568794     -1506.0505    
     28000   288.51202     -2705.3397      20.488477      20.294273      23.43651       2506.7491    
     28100   300.91007     -2705.0429      20.55073       20.261522      23.510914     -2428.7803    
     28200   309.48294     -2704.3395      20.441414      20.272406      23.544061      1666.0829    
     28300   298.41513     -2703.7447      20.498898      20.335981      23.449972     -252.24667    
     28400   303.21538     -2705.374       20.517533      20.272664      23.50282      -860.84684    
     28500   281.04302     -2705.0803      20.473897      20.228193      23.535307      2085.2898    
     28600   297.57203     -2705.865       20.496494      20.362609      23.456056     -2692.0829    
     28700   292.89819     -2704.9097      20.477505      20.26805       23.484306      2502.0399    
     28800   287.36576     -2704.0057      20.510461      20.23955       23.558039     -1122.6367    
     28900   304.06694     -2704.6166      20.49872       20.315454      23.464077     -132.03352    
     29000   310.12003     -2705.1131      20.448711      20.312944      23.491345      1235.0057    
     29100   288.12785     -2704.9044      20.531562      20.244748      23.54731      -2174.6526    
     29200   294.00771     -2706.1052      20.486283      20.283957      23.443282      2644.4054    
     29300   296.81927     -2705.8013      20.465131      20.325702      23.523797     -2225.269     
     29400   298.65237     -2704.3198      20.497923      20.247452      23.520451      933.36359    
     29500   312.85948     -2704.9079      20.522883      20.27735       23.462962      568.1131     
     29600   282.13241     -2703.288       20.452358      20.333217      23.533462     -1733.8966    
     29700   304.21934     -2705.4321      20.4635        20.255576      23.505417      2753.2261    
     29800   291.58216     -2706.1631      20.556706      20.287467      23.471021     -2668.88      
     29900   279.10869     -2706.4395      20.448665      20.285708      23.49372       1919.1428    
     30000   290.60333     -2706.049       20.455396      20.312085      23.509824     -605.71106    
     30100   282.54692     -2704.4194      20.546627      20.264078      23.48463      -1144.5207    
     30200   302.52038     -2704.7983      20.45745       20.261114      23.509473      2806.3428    
     30300   302.42431     -2704.2668      20.470979      20.34846       23.521911     -3071.6311    
     30400   296.04125     -2704.1915      20.487371      20.263098      23.4763        2735.2643    
     30500   296.82896     -2705.8816      20.525781      20.235488      23.542704     -1371.5475    
     30600   299.23679     -2706.9618      20.477921      20.31714       23.480555     -692.03931    
     30700   297.53761     -2705.8605      20.45663       20.301873      23.463145      2311.3963    
     30800   292.21903     -2704.4296      20.525495      20.265278      23.562145     -3363.1766    
     30900   309.15481     -2705.3269      20.487833      20.24729       23.470987      3400.448     
     31000   301.42277     -2704.6047      20.493691      20.325529      23.509958     -2553.9524    
     31100   293.06093     -2704.4718      20.480153      20.26262       23.523153      784.37567    
     31200   300.4759      -2706.182       20.497181      20.261433      23.480754      1463.1165    
     31300   288.91756     -2705.9603      20.509811      20.320008      23.507774     -3527.3159    
     31400   294.97859     -2705.2424      20.446844      20.241658      23.497136      4680.4422    
     31500   309.76998     -2704.5866      20.537747      20.299523      23.52783      -4443.5477    
     31600   291.82089     -2703.49        20.471435      20.293091      23.470498      2481.7124    
     31700   294.82563     -2704.6459      20.470644      20.263194      23.53108       880.48344    
     31800   291.22181     -2705.3357      20.543769      20.29091       23.505621     -3522.773     
     31900   294.42944     -2705.7655      20.430772      20.289169      23.45041       5114.7285    
     32000   294.79221     -2704.2059      20.491026      20.308362      23.586601     -5024.6746    
     32100   303.89137     -2703.7318      20.520194      20.233188      23.458657      3602.9396    
     32200   302.10926     -2703.9764      20.464513      20.326996      23.505981     -880.87804    
     32300   297.24829     -2705.0498      20.458213      20.308923      23.553945     -2116.5269    
     32400   296.4534      -2705.7568      20.52989       20.220403      23.434404      4390.805     
     32500   292.72715     -2705.2678      20.52349       20.319707      23.527692     -4991.6375    
     32600   294.07285     -2704.6653      20.399963      20.291792      23.508091      4328.7043    
     32700   321.06611     -2706.2963      20.548011      20.287332      23.476295     -2387.4506    
     32800   283.74544     -2703.6363      20.531916      20.2476        23.514248     -498.92688    
     32900   317.96063     -2705.9881      20.414867      20.292168      23.521382      2484.8106    
     33000   285.495       -2704.837       20.517193      20.342364      23.479724     -3464.212     
     33100   271.27969     -2705.2303      20.510047      20.202926      23.483096      3935.7456    
     33200   282.95542     -2705.436       20.477442      20.29746       23.540903     -2407.1805    
     33300   299.38253     -2705.104       20.472491      20.346684      23.441417      409.86028    
     33400   306.2746      -2705.1579      20.524221      20.207664      23.517412      1467.5786    
     33500   310.59384     -2704.9997      20.5083        20.280058      23.550092     -3043.8359    
     33600   307.34169     -2704.1816      20.456258      20.320974      23.446949      2801.3278    
     33700   303.54388     -2704.5982      20.50417       20.264804      23.553423     -1992.6136    
     33800   292.42284     -2705.358       20.508918      20.255665      23.494032      596.22171    
     33900   295.32187     -2705.792       20.463256      20.324897      23.467332      524.46736    
     34000   290.34268     -2704.4931      20.497634      20.263335      23.546577     -1352.6585    
     34100   309.99618     -2704.0323      20.517941      20.248805      23.476368      2053.8981    
     34200   310.33412     -2704.2694      20.481656      20.338637      23.499709     -2201.5297    
     34300   289.28129     -2703.6556      20.45581       20.271339      23.525838      1906.7118    
     34400   290.01056     -2704.8159      20.539403      20.251125      23.484494      47.999717    
     34500   292.8327      -2705.1989      20.47775       20.305294      23.510109     -994.54121    
     34600   300.37293     -2705.2127      20.431809      20.284767      23.528251      1956.5935    
     34700   304.36637     -2705.3205      20.555688      20.264577      23.499833     -2407.2049    
     34800   295.89379     -2704.62        20.508703      20.245614      23.480704      1917.6995    
     34900   307.66473     -2704.9802      20.439485      20.332413      23.529875     -1193.3543    
     35000   320.04128     -2704.4901      20.507314      20.292477      23.484865     -202.947      
     35100   305.74067     -2702.6756      20.527836      20.222293      23.512753      1619.4775    
     35200   302.3993      -2704.1168      20.463182      20.32787       23.537009     -2385.2592    
     35300   303.43708     -2705.2057      20.46204       20.30695       23.448884      2669.7096    
     35400   306.62922     -2705.8024      20.571113      20.201411      23.550559     -2452.3871    
     35500   284.38017     -2704.4067      20.466509      20.289474      23.497731      1220.9078    
     35600   284.68959     -2703.0939      20.433248      20.367208      23.459012      1094.6941    
     35700   306.8918      -2703.2501      20.543528      20.210271      23.57832      -1843.6365    
     35800   300.87019     -2703.6163      20.506256      20.242082      23.482246      2617.1665    
     35900   301.74753     -2704.736       20.450151      20.39472       23.474963     -2488.8598    
     36000   297.45759     -2704.8724      20.479336      20.220683      23.557149      1357.4461    
     36100   297.09676     -2704.8476      20.554151      20.232203      23.488241      128.28559    
     36200   303.31901     -2705.2906      20.449895      20.366112      23.478906     -1354.7709    
     36300   301.78219     -2704.1795      20.437083      20.267159      23.545646      1979.9311    
     36400   317.35777     -2704.1339      20.57478       20.249203      23.500057     -1987.8444    
     36500   305.00886     -2704.0233      20.470348      20.297171      23.484926      1457.8182    
     36600   310.34501     -2705.849       20.441462      20.317021      23.5346       -926.84813    
     36700   282.68406     -2704.2981      20.534213      20.270035      23.472031      27.780434    
     36800   289.07812     -2704.5198      20.489246      20.256335      23.510135      1306.1809    
     36900   298.89729     -2704.5737      20.446414      20.325888      23.540592     -1543.3866    
     37000   302.1768      -2702.9062      20.512621      20.273326      23.464908      1953.7441    
     37100   313.78572     -2703.4327      20.524883      20.254766      23.529371     -977.05165    
     37200   306.79284     -2704.3504      20.446902      20.309455      23.525454      69.63403     
     37300   299.47531     -2704.4778      20.468009      20.315174      23.477256      728.24208    
     37400   290.94415     -2704.4084      20.543313      20.238195      23.518608     -1114.9638    
     37500   299.88356     -2705.7865      20.474251      20.271443      23.50067       1317.4664    
     37600   294.34249     -2705.7506      20.448928      20.329152      23.514765     -1070.1698    
     37700   295.39665     -2704.7413      20.517613      20.255222      23.495389      357.15304    
     37800   317.40242     -2704.8161      20.530831      20.249605      23.492832      380.25567    
     37900   308.67643     -2704.2231      20.439468      20.329995      23.537683     -1136.0521    
     38000   294.26057     -2704.5032      20.477716      20.281256      23.488455      1599.2503    
     38100   285.45788     -2705.2784      20.559641      20.239686      23.491554     -1018.6484    
     38200   293.14409     -2705.6189      20.447188      20.283143      23.530463      725.75549    
     38300   286.70482     -2704.2995      20.460563      20.324119      23.488714      197.81921    
     38400   291.38027     -2703.6989      20.552576      20.232868      23.511036     -549.71596    
     38500   316.04985     -2705.4007      20.46975       20.267224      23.513845      1409.2845    
     38600   278.11523     -2703.7754      20.448911      20.380152      23.484173     -1857.2414    
     38700   280.63323     -2706.0213      20.501133      20.206142      23.518197      2420.6137    
     38800   281.23103     -2705.7972      20.54973       20.235803      23.507102     -1060.2422    
     38900   294.07669     -2705.2808      20.416562      20.40535       23.450481     -468.09773    
     39000   290.57211     -2704.3139      20.460198      20.240327      23.544402      1947.5124    
     39100   310.19828     -2704.8947      20.638446      20.196915      23.505076     -3286.3371    
     39200   305.453       -2704.4849      20.418497      20.338873      23.456244      3258.6756    
     39300   299.51384     -2705.3734      20.409903      20.347215      23.571091     -2557.8244    
     39400   288.16122     -2705.7132      20.590674      20.196091      23.461783      988.79878    
     39500   293.33001     -2705.6978      20.503336      20.270971      23.475786      968.43695    
     39600   292.03896     -2703.7139      20.40619       20.366118      23.555418     -2295.9864    
     39700   308.42698     -2704.2418      20.520905      20.239505      23.463093      3065.6338    
     39800   310.08126     -2705.0124      20.569878      20.254852      23.502782     -2523.5717    
     39900   283.58955     -2704.3474      20.412112      20.320035      23.514416      1685.4593    
     40000   300.36821     -2705.8298      20.488216      20.285592      23.500286     -162.23455    
     40100   310.53848     -2705.7625      20.576873      20.246754      23.480303     -1604.7219    
     40200   314.58929     -2704.0818      20.437034      20.297897      23.506455      2372.2017    
     40300   294.16542     -2702.9696      20.465634      20.324586      23.54349      -2375.8918    
     40400   293.88901     -2704.0799      20.537967      20.242658      23.456535      2053.4819    
     40500   304.70906     -2705.5132      20.482619      20.296418      23.512508     -777.9858     
     40600   284.12121     -2704.3012      20.473592      20.306279      23.510336     -453.99412    
     40700   296.5108      -2704.8399      20.508899      20.245634      23.481109      1988.0037    
     40800   301.3238      -2704.1479      20.511199      20.293643      23.527578     -2479.1974    
     40900   306.10692     -2702.4907      20.461952      20.304808      23.474001      2588.41      
     41000   339.24528     -2704.576       20.513797      20.267523      23.545048     -1794.6108    
     41100   296.52972     -2703.4463      20.509488      20.25401       23.520834      320.45194    
     41200   297.58377     -2704.4506      20.484192      20.304367      23.460178      1384.0948    
     41300   284.27835     -2704.4213      20.49312       20.290109      23.541839     -2186.5704    
     41400   297.32095     -2705.5196      20.480334      20.234712      23.499981      3107.4711    
     41500   281.69387     -2703.6677      20.51289       20.326437      23.484791     -2256.1944    
     41600   320.62897     -2704.8546      20.485671      20.269512      23.50421       1104.5605    
     41700   309.76306     -2704.2652      20.498445      20.234449      23.549253      498.86293    
     41800   304.64821     -2705.2893      20.511042      20.326334      23.484122     -2659.7715    
     41900   290.86544     -2705.4294      20.453571      20.285769      23.451358      4032.9835    
     42000   285.0452      -2704.5662      20.534848      20.228414      23.598169     -3839.8432    
     42100   297.70421     -2704.5357      20.470861      20.285671      23.461616      3138.7033    
     42200   292.06779     -2703.6251      20.465182      20.352208      23.471596     -533.50048    
     42300   313.62076     -2704.7414      20.519513      20.215489      23.594557     -1988.2183    
     42400   300.69645     -2705.078       20.494643      20.257484      23.444686      3939.3726    
     42500   293.45722     -2705.7724      20.472172      20.392662      23.494087     -4678.5419    
     42600   286.44531     -2705.3182      20.455905      20.192563      23.552253      4316.0807    
     42700   286.96107     -2703.7629      20.561883      20.262483      23.491008     -1840.422     
     42800   309.07237     -2704.2111      20.470174      20.328841      23.486502     -329.3307     
     42900   301.95126     -2704.3789      20.451858      20.257311      23.534485      2235.528     
     43000   292.79768     -2704.8593      20.578843      20.270199      23.48405      -3148.7571    
     43100   300.77687     -2705.6863      20.458918      20.270855      23.484498      3085.8034    
     43200   302.26177     -2705.482       20.457376      20.31445       23.555127     -2493.4431    
     43300   303.57238     -2703.6675      20.548129      20.245319      23.469993      997.64129    
     43400   303.25349     -2703.3366      20.514079      20.247598      23.507772      971.24271    
     43500   313.07186     -2705.2005      20.442729      20.346523      23.532755     -2261.4805    
     43600   304.76858     -2705.767       20.50705       20.252447      23.464239      2568.7159    
     43700   292.61352     -2704.9912      20.558789      20.223334      23.538012     -2096.4418    
     43800   292.62731     -2704.3948      20.431451      20.321374      23.503768      1248.8553    
     43900   305.0025      -2704.334       20.477217      20.302976      23.496791      242.77488    
     44000   310.24479     -2703.6234      20.569245      20.210337      23.534673     -1191.1102    
     44100   319.05738     -2703.5113      20.48534       20.285853      23.485568      1584.4706    
     44200   306.71017     -2704.0892      20.469363      20.325491      23.523144     -1686.2739    
     44300   290.42633     -2704.5303      20.518198      20.228832      23.507076      1277.7674    
     44400   300.16197     -2705.476       20.511669      20.280804      23.487813     -323.51919    
     44500   288.26318     -2704.634       20.44441       20.322019      23.525438     -645.27954    
     44600   310.79795     -2704.97        20.519012      20.227454      23.503353      1486.9242    
     44700   306.09839     -2703.7047      20.546411      20.272215      23.509762     -2214.6939    
     44800   318.58648     -2705.0456      20.405145      20.324268      23.526225      1403.776     
     44900   300.38003     -2706.1268      20.511039      20.277658      23.496577     -758.72557    
     45000   286.62273     -2705.3351      20.569696      20.224019      23.491368     -731.21501    
     45100   287.6423      -2704.2794      20.416473      20.301894      23.527293      2141.5278    
     45200   313.76163     -2705.1871      20.488312      20.337239      23.502299     -2587.1659    
     45300   300.94228     -2704.0176      20.580151      20.190351      23.47204       2083.162     
     45400   304.02667     -2705.2919      20.461109      20.296295      23.547377     -1283.8995    
     45500   285.40675     -2705.92        20.424005      20.359687      23.481551      22.206916    
     45600   290.37539     -2705.59        20.559627      20.200906      23.492413      1161.968     
     45700   305.41931     -2705.4397      20.508272      20.262759      23.549827     -2060.3297    
     45800   301.01156     -2704.2994      20.410558      20.362125      23.46786       1991.5599    
     45900   327.4943      -2706.1329      20.557656      20.247213      23.506546     -1861.3729    
     46000   308.19896     -2705.6278      20.518443      20.225166      23.529823      379.43413    
     46100   294.01664     -2706.7181      20.407605      20.355862      23.496714      360.59642    
     46200   287.26403     -2706.5276      20.518486      20.279215      23.495744     -1392.834     
     46300   293.62904     -2705.7949      20.530896      20.20501       23.504548      1697.2495    
     46400   292.89177     -2704.5905      20.438499      20.350154      23.522822     -1501.95      
     46500   305.25262     -2704.8231      20.470613      20.297545      23.488103      1109.3706    
     46600   302.78774     -2704.1913      20.557071      20.213767      23.519054     -259.91688    
     46700   307.59534     -2704.9108      20.467591      20.318857      23.511375     -820.04722    
     46800   297.97538     -2705.9475      20.437585      20.323102      23.486372      1239.3642    
     46900   287.37939     -2705.3569      20.553007      20.22134       23.535945     -1547.4634    
     47000   297.16589     -2705.0301      20.496144      20.262027      23.489112      1494.2579    
     47100   304.27469     -2704.052       20.455671      20.356646      23.487239     -839.96703    
     47200   312.47442     -2704.7555      20.497515      20.252757      23.541642     -341.18554    
     47300   295.4231      -2704.1915      20.520384      20.228751      23.51597       1158.648     
     47400   310.55529     -2705.7998      20.470864      20.361479      23.470631     -1578.8022    
     47500   288.21758     -2704.7514      20.456494      20.271094      23.520946      1805.864     
     47600   290.07892     -2704.6166      20.535772      20.232298      23.534114     -1042.752     
     47700   308.40266     -2704.2632      20.49287       20.332757      23.446897      251.47821    
     47800   314.59612     -2704.3534      20.443602      20.312272      23.522393      349.06449    
     47900   307.00876     -2704.8469      20.549926      20.210086      23.556952     -1407.2661    
     48000   298.71958     -2705.53        20.501214      20.301597      23.428797      1848.826     
     48100   288.44251     -2705.1366      20.448569      20.343415      23.518145     -1700.0138    
     48200   294.97629     -2704.9799      20.485743      20.212546      23.564548      1278.1683    
     48300   290.39361     -2704.0212      20.533047      20.292037      23.45102       99.370611    
     48400   294.58755     -2704.4294      20.468907      20.327158      23.495194     -683.37317    
     48500   299.92331     -2704.768       20.46787       20.216391      23.574185      1806.6525    
     48600   304.66908     -2705.261       20.538497      20.302105      23.464394     -1792.0877    
     48700   291.15056     -2704.5964      20.463678      20.309811      23.475364      1309.9256    
     48800   286.08657     -2704.6115      20.454766      20.25816       23.581477     -389.074      
     48900   293.46058     -2705.1619      20.5475        20.279746      23.447231     -253.73075    
     49000   306.22328     -2705.2376      20.480931      20.292467      23.487809      704.55727    
     49100   310.57664     -2704.1893      20.458799      20.281196      23.580613     -1361.9821    
     49200   302.87683     -2703.8574      20.533595      20.278632      23.444397      1226.3178    
     49300   296.15624     -2705.3944      20.509151      20.27417       23.506978     -799.7875     
     49400   287.45944     -2705.2488      20.433247      20.284123      23.560746      255.82141    
     49500   294.22611     -2705.1077      20.520934      20.285309      23.446315      873.88673    
     49600   300.74107     -2704.5435      20.542959      20.259939      23.507791     -1646.3105    
     49700   310.28639     -2704.5648      20.435951      20.269561      23.55203       1773.7714    
     49800   310.15142     -2704.8865      20.493311      20.323816      23.492852     -1579.294     
     49900   293.46065     -2705.627       20.545732      20.223356      23.49278       618.91971    
     50000   292.39183     -2706.0399      20.457327      20.274165      23.527074      774.93361    
Loop time of 148.386 on 16 procs for 50000 steps with 560 atoms

Performance: 29.113 ns/day, 0.824 hours/ns, 336.959 timesteps/s, 188.697 katom-step/s
100.0% CPU use with 4 MPI tasks x 4 OpenMP threads

MPI task timing breakdown:
Section |  min time  |  avg time  |  max time  |%varavg| %total
---------------------------------------------------------------
Pair    | 109.66     | 128.02     | 146.26     | 161.1 | 86.27
Neigh   | 0          | 0          | 0          |   0.0 |  0.00
Comm    | 1.4307     | 19.682     | 38.037     | 411.0 | 13.26
Output  | 0.021368   | 0.037645   | 0.085011   |  14.1 |  0.03
Modify  | 0.52418    | 0.55746    | 0.59531    |   3.4 |  0.38
Other   |            | 0.09325    |            |       |  0.06

Nlocal:            140 ave         160 max         120 min
Histogram: 2 0 0 0 0 0 0 0 0 2
Nghost:            735 ave         755 max         715 min
Histogram: 2 0 0 0 0 0 0 0 0 2
Neighs:              0 ave           0 max           0 min
Histogram: 4 0 0 0 0 0 0 0 0 0
FullNghs:         7000 ave        8000 max        6000 min
Histogram: 2 0 0 0 0 0 0 0 0 2

Total # of neighbors = 28000
Ave neighs/atom = 50
Neighbor list builds = 0
Dangerous builds = 0
Total wall time: 0:02:28
