LAMMPS (22 Jul 2025)
  using 4 OpenMP thread(s) per MPI task
units           metal
dimension       3
boundary        p p p
atom_style      atomic

timestep        0.001

read_data       Ti_aSi_PBC.data
Reading data file ...
  orthogonal box = (0 0 0) to (27.344798 27.344798 49.225544)
  1 by 2 by 2 MPI processor grid
  reading atoms ...
  1810 atoms
  read_data CPU = 0.009 seconds

group           si_atoms type 1
730 atoms in group si_atoms
group           ti_atoms type 2
1080 atoms in group ti_atoms

mass            1 28.0855  # Si
mass            2 47.867   # Ti

pair_style      tersoff
pair_coeff      * * TSCBOP.tersoff Si Ti

neighbor        2.0 bin
neigh_modify    delay 0 every 1 check yes

thermo          100
thermo_style    custom step temp pe press vol
minimize        1.0e-6 1.0e-8 1000 10000
Neighbor list info ...
  update: every = 1 steps, delay = 0 steps, check = yes
  max neighbors/atom: 2000, page size: 100000
  master list distance cutoff = 5.8838
  ghost atom cutoff = 5.8838
  binsize = 2.9419, bins = 10 10 17
  1 neighbor lists, perpetual/occasional/extra = 1 0 0
  (1) pair tersoff, perpetual
      attributes: full, newton on
      pair build: full/bin/atomonly
      stencil: full/bin/3d
      bin: standard
Per MPI rank memory allocation (min/avg/max) = 6.867 | 6.869 | 6.872 Mbytes
   Step          Temp          PotEng         Press          Volume    
         0   0             -7969.1457      40203.497      36807.809    
        87   0             -8335.5906     -53567.848      36807.809    
Loop time of 1.5641 on 16 procs for 87 steps with 1810 atoms

100.0% CPU use with 4 MPI tasks x 4 OpenMP threads

Minimization stats:
  Stopping criterion = energy tolerance
  Energy initial, next-to-last, final = 
     -7969.14569514739  -8335.58602839426  -8335.59060682912
  Force two-norm initial, final = 124.35609 6.2350718
  Force max component initial, final = 16.796723 1.6158869
  Final line search alpha, max atom move = 0.069187373 0.11179897
  Iterations, force evaluations = 87 163

MPI task timing breakdown:
Section |  min time  |  avg time  |  max time  |%varavg| %total
---------------------------------------------------------------
Pair    | 0.4694     | 1.0204     | 1.5525     |  52.5 | 65.24
Neigh   | 0.0020676  | 0.0023445  | 0.0025916  |   0.5 |  0.15
Comm    | 0.0068718  | 0.53838    | 1.0889     |  72.3 | 34.42
Output  | 0          | 0          | 0          |   0.0 |  0.00
Modify  | 0          | 0          | 0          |   0.0 |  0.00
Other   |            | 0.002952   |            |       |  0.19

Nlocal:          452.5 ave         495 max         407 min
Histogram: 2 0 0 0 0 0 0 0 0 2
Nghost:         1332.5 ave        1386 max        1280 min
Histogram: 1 1 0 0 0 0 0 0 1 1
Neighs:              0 ave           0 max           0 min
Histogram: 4 0 0 0 0 0 0 0 0 0
FullNghs:        19981 ave       24065 max       15804 min
Histogram: 2 0 0 0 0 0 0 0 0 2

Total # of neighbors = 79924
Ave neighs/atom = 44.156906
Neighbor list builds = 3
Dangerous builds = 0
reset_timestep  0

velocity        all create 300.0 12345 dist gaussian
fix             1 all npt temp 300.0 300.0 0.1 iso 0.0 0.0 1.0

run             30000
Per MPI rank memory allocation (min/avg/max) = 5.742 | 5.744 | 5.747 Mbytes
   Step          Temp          PotEng         Press          Volume    
         0   300           -8335.5906     -51532.196      36807.809    
       100   270.70958     -8338.5871      4670.6411      34849.168    
       200   356.6282      -8355.253       1984.3879      34956.136    
       300   391.14073     -8378.8492     -328.86806      34876.92     
       400   388.34699     -8397.7373     -35.571321      34867.808    
       500   389.64138     -8418.7594      221.20845      34850.95     
       600   387.69834     -8438.3583      494.96242      34699.653    
       700   378.0089      -8457.4747      558.91707      34640.523    
       800   364.74219     -8474.7115     -838.96917      34633.419    
       900   340.85059     -8487.5115     -2645.1489      34624.787    
      1000   336.74442     -8502.7631      92.471287      34485.177    
      1100   330.08635     -8515.9812     -233.57752      34453.17     
      1200   313.32724     -8525.2743     -1061.793       34434.765    
      1300   312.66425     -8537.7867      261.06017      34434.386    
      1400   302.76012     -8546.3279      677.97651      34435.189    
      1500   306.16495     -8555.3024      334.94349      34360.607    
      1600   307.23524     -8562.7965      2731.1837      34328.821    
      1700   292.93149     -8565.431      -2066.3865      34351.376    
      1800   293.53652     -8569.3022      258.69882      34307.697    
      1900   293.93698     -8571.9494      651.9066       34378.343    
      2000   299.13253     -8575.172       2444.41        34324.889    
      2100   296.31369     -8576.3138     -310.5596       34358.951    
      2200   305.48226     -8579.4466      1308.4296      34335.219    
      2300   302.77568     -8581.3465      508.14583      34325.533    
      2400   297.07077     -8582.3235     -135.63973      34345.094    
      2500   298.16602     -8585.0325      1146.0861      34301.21     
      2600   295.87174     -8587.5775     -276.02548      34342.572    
      2700   296.28997     -8591.0765     -1686.1948      34383.402    
      2800   302.17748     -8595.6365      1925.3477      34308.179    
      2900   297.75247     -8596.5435      1514.5546      34295.765    
      3000   296.42132     -8596.2771     -688.93829      34307.251    
      3100   308.78609     -8598.1205      1222.5489      34289.043    
      3200   311.28455     -8600.0308     -2394.4297      34342.656    
      3300   307.20603     -8603.2651     -257.82512      34308.951    
      3400   295.70901     -8606.2765      1403.9137      34352.98     
      3500   295.7817      -8609.7601      1350.1397      34281.931    
      3600   289.56852     -8609.2128      1002.4441      34291.771    
      3700   304.2771      -8611.5846     -2865.3421      34323.117    
      3800   311.67656     -8612.5004      533.5819       34268.891    
      3900   303.36873     -8613.8127      93.868478      34319.583    
      4000   304.53614     -8619.1635     -1612.8162      34270.41     
      4100   298.83113     -8622.55       -1688.9604      34252.515    
      4200   302.02413     -8625.5739     -2155.4404      34266.212    
      4300   298.11925     -8625.6466     -1008.3728      34265.647    
      4400   302.55193     -8626.3371     -332.3012       34212.135    
      4500   301.7468      -8625.8122      2102.8627      34214.344    
      4600   310.53966     -8629.4208     -2681.2164      34277.536    
      4700   293.53218     -8628.7692      75.205324      34152.465    
      4800   295.94506     -8632.8641     -456.29799      34267.048    
      4900   300.0897      -8635.7265     -2540.2859      34242.063    
      5000   295.73709     -8636.1568      1302.6147      34199.721    
      5100   302.22061     -8638.1739      2176.9543      34218.954    
      5200   306.97808     -8639.3256      1990.7382      34141.262    
      5300   302.86908     -8639.8817     -2414.6436      34249.362    
      5400   296.84727     -8641.0849     -762.22078      34203.822    
      5500   295.74882     -8642.6013      37.551055      34183.164    
      5600   297.33556     -8642.7085     -1875.3435      34225.881    
      5700   299.77643     -8641.2165     -1153.907       34192.108    
      5800   299.67071     -8640.5346     -1116.7313      34246.786    
      5900   306.94688     -8644.9848     -1141.3959      34199.627    
      6000   310.64141     -8648.5616      2217.1004      34154.042    
      6100   302.25129     -8649.0839      2251.5779      34167.941    
      6200   293.40552     -8649.233      -451.29689      34215.228    
      6300   305.93481     -8653.1097     -1259.8757      34231.893    
      6400   295.91221     -8651.676       372.55914      34181.909    
      6500   291.57323     -8653.7337     -1577.3263      34220.559    
      6600   287.63818     -8653.8883     -676.20116      34174.996    
      6700   302.45906     -8655.2959      493.81537      34169.005    
      6800   306.15095     -8652.9438      651.1624       34159.984    
      6900   312.65298     -8652.3119     -1538.9957      34170.492    
      7000   303.58001     -8654.9572     -3193.118       34186.951    
      7100   303.60945     -8657.2914     -783.56264      34180.626    
      7200   301.09423     -8659.3095      774.34862      34124.451    
      7300   300.60331     -8660.0139      4.6584097      34128.336    
      7400   307.85682     -8661.5447     -3828.1431      34186.651    
      7500   302.25888     -8661.7227     -1445.5954      34108.735    
      7600   300.1602      -8663.1723      521.66033      34075.979    
      7700   295.34299     -8663.9977     -97.418629      34102.652    
      7800   295.80561     -8662.9841     -1192.5759      34128.443    
      7900   303.40361     -8661.63        1887.1518      34132.306    
      8000   309.0314      -8663.9362      1085.9437      34089.396    
      8100   303.79434     -8665.8456      1608.5377      34093.271    
      8200   296.95701     -8666.0427      3305.8454      34054.124    
      8300   299.84749     -8668.1012     -1850.8225      34115.491    
      8400   294.00303     -8667.8144     -121.74518      34102.192    
      8500   298.58298     -8669.339       349.76077      34102.336    
      8600   302.23271     -8668.6443      1594.4729      34062.151    
      8700   304.64321     -8666.514       2.8274664      34076.863    
      8800   306.30308     -8666.8365     -1641.8562      34136.799    
      8900   305.20431     -8669.4211     -576.43724      34089.439    
      9000   300.53973     -8669.5815      1370.3139      34080.84     
      9100   301.00783     -8669.3678      852.93973      34112.933    
      9200   309.91418     -8670.5047     -3721.3506      34151.076    
      9300   305.63335     -8668.6438     -384.89388      34078.462    
      9400   301.63515     -8669.6012     -1336.7035      34152.047    
      9500   303.61394     -8672.7841      4753.6203      34001.259    
      9600   304.27194     -8674.2464     -836.57145      34050.56     
      9700   298.83017     -8673.6626     -5689.9175      34146.604    
      9800   294.76791     -8673.3932     -2730.0713      34075.613    
      9900   298.13175     -8675.3023     -2806.3786      34079.97     
     10000   298.86108     -8675.4728     -1970.3443      34103.481    
     10100   301.28964     -8674.82        1050.2168      34030.932    
     10200   305.21397     -8674.3306     -1103.1762      34065.755    
     10300   299.77243     -8672.7359     -1972.3371      34092.944    
     10400   305.49611     -8677.2385      1017.8521      34086.671    
     10500   301.00762     -8678.4915      4555.2849      33989.476    
     10600   294.40372     -8677.67       -2292.5252      34118.485    
     10700   293.69232     -8676.8635      1256.7648      34032.135    
     10800   309.6872      -8677.9452     -1396.7853      34079.603    
     10900   308.00825     -8676.1581      355.21267      34076.505    
     11000   308.15942     -8679.3027      619.68825      34080.67     
     11100   295.89853     -8678.4458      1476.1587      34086.201    
     11200   302.96113     -8680.3416      1468.614       34054.223    
     11300   294.78357     -8678.635      -653.71409      34079.174    
     11400   304.68673     -8680.2584     -1867.3703      34103.619    
     11500   304.91532     -8680.7418      739.72339      34111.245    
     11600   298.36938     -8682.655       2570.1427      34014.015    
     11700   293.60143     -8684.3413     -715.80072      34111.171    
     11800   302.19467     -8688.149      -3158.2343      34078.004    
     11900   297.2856      -8689.1123      821.64452      34075.554    
     12000   297.86552     -8690.386       2280.4343      34006.021    
     12100   296.03482     -8689.9816     -531.61568      34052.186    
     12200   304.33571     -8690.3552     -120.31734      34073.488    
     12300   316.01287     -8692.2963     -1183.4725      34061.425    
     12400   307.86576     -8693.0462     -213.93451      34058.953    
     12500   300.46697     -8693.7051      525.86139      34033.431    
     12600   301.97023     -8694.2849      3582.4388      34017.095    
     12700   300.57009     -8694.0815      1148.8189      34048.356    
     12800   297.54955     -8695.1964      354.80261      34053.879    
     12900   291.47313     -8696.1668     -3372.4832      34083.285    
     13000   296.3811      -8696.4969     -961.03412      34036.245    
     13100   294.36047     -8692.8706      668.66764      34059.432    
     13200   302.05958     -8693.9215      5.1100101      34038.595    
     13300   301.21653     -8694.8683      1459.1435      34040.617    
     13400   300.02796     -8696.3697      213.37792      34007.508    
     13500   292.26241     -8695.6126      2984.8836      33988.193    
     13600   297.10774     -8696.419      -2354.49        34048.76     
     13700   307.81206     -8696.1437     -804.84788      34037.469    
     13800   310.47705     -8696.1729      2922.7975      33986.231    
     13900   308.1833      -8699.0245      363.13898      34049.204    
     14000   307.34237     -8701.4321     -342.55571      34041        
     14100   298.04104     -8701.4787     -1019.8994      33998.232    
     14200   292.92282     -8701.8788     -97.237646      34059.913    
     14300   296.44231     -8703.1358      578.09966      34010.096    
     14400   293.85051     -8701.5232      1096.104       34025.027    
     14500   304.03415     -8700.9567     -3110.8762      34054.863    
     14600   307.14312     -8702.0661      971.62184      33993.062    
     14700   301.14701     -8703.5277     -799.89507      34072.515    
     14800   302.16907     -8704.9306      2711.2564      33963.381    
     14900   301.33324     -8704.7801     -1170.3495      34028.502    
     15000   296.91876     -8703.8943     -202.52145      34019.014    
     15100   296.04851     -8704.9669      890.93297      33980.422    
     15200   299.31441     -8708.0411      1249.0699      33982.744    
     15300   295.67565     -8708.329      -837.98333      34034.835    
     15400   299.35086     -8708.4754      407.04952      33993.544    
     15500   306.80189     -8707.7349     -1161.2729      34059.658    
     15600   311.61491     -8708.4484     -387.24423      34024.184    
     15700   306.11577     -8711.2204      1762.1544      33938.519    
     15800   298.43322     -8711.2846      1099.4981      34010.837    
     15900   300.58479     -8712.3144      635.57717      34023.442    
     16000   300.52336     -8713.2178     -44.581794      33978.911    
     16100   299.88827     -8715.5219      242.7072       33960.396    
     16200   292.87547     -8715.5253      323.56916      34007.912    
     16300   301.42843     -8715.3624     -1692.8255      34002.397    
     16400   303.8979      -8714.4143     -2646.0649      33999.657    
     16500   301.89748     -8713.5331      1024.8024      33966.777    
     16600   296.08735     -8712.6613     -409.98053      33987.151    
     16700   301.37531     -8715.9822     -899.15458      34000.88     
     16800   291.27518     -8715.5068      1212.8199      33967.595    
     16900   296.34953     -8716.0187     -475.15048      33993.244    
     17000   303.85553     -8713.6385     -1117.2946      34001.12     
     17100   307.6095      -8713.8914      369.22776      33987.893    
     17200   305.05579     -8715.4252      3198.8181      33914.425    
     17300   295.70731     -8715.733      -1383.7392      33984.524    
     17400   295.81649     -8715.9458     -2284.2558      34057.95     
     17500   303.56292     -8716.848       1970.3231      33997.513    
     17600   311.96835     -8716.1133      4401.7466      33921.748    
     17700   313.49215     -8715.4177     -313.06078      34041.348    
     17800   305.25916     -8717.3253      1042.4611      33978.61     
     17900   296.85663     -8716.9429     -1096.9332      34011.486    
     18000   299.06405     -8718.0566     -810.53754      34014.651    
     18100   299.50689     -8718.3425     -718.66629      33987.328    
     18200   299.04387     -8717.0276      1256.3463      33991.513    
     18300   311.70015     -8717.6128     -623.43112      34003.818    
     18400   305.04905     -8715.7796      1129.0558      33967.91     
     18500   298.95466     -8717.7177     -1980.439       33995.289    
     18600   296.09064     -8718.8649     -4326.7556      34071.995    
     18700   303.82657     -8720.1094     -254.58765      33984.881    
     18800   302.49859     -8718.7332     -732.16791      33966.344    
     18900   296.70978     -8715.4515      450.53722      34031.797    
     19000   315.16918     -8717.5111      2227.6481      33945.493    
     19100   304.86193     -8718.0665      2335.7748      33960.768    
     19200   305.03947     -8719.832       743.39978      33971.97     
     19300   292.21365     -8718.0986     -1012.4333      34032.722    
     19400   302.84977     -8720.682       766.32294      33986.855    
     19500   302.79741     -8720.3421      1093.5784      33971.985    
     19600   306.16112     -8719.3095      183.00228      33987.829    
     19700   306.14092     -8717.77       -365.83532      33995.398    
     19800   299.24732     -8717.6218     -3751.0565      34052.52     
     19900   294.96888     -8719.5984     -1615.4346      33999.22     
     20000   295.55152     -8720.2543      3057.3117      33952.132    
     20100   295.90937     -8720.46       -2665.4284      34015.403    
     20200   304.883       -8721.4331     -105.72361      33991.381    
     20300   307.41301     -8719.465       1003.2958      33949.004    
     20400   309.0589      -8716.9575      935.62907      33989.084    
     20500   308.27169     -8719.5865     -1219.2667      33993.386    
     20600   307.12773     -8721.5133     -283.9548       33960.529    
     20700   294.35084     -8720.4938     -2466.2537      34005.298    
     20800   298.91485     -8722.3793      1166.4852      33931.771    
     20900   297.29601     -8721.7978      3586.543       33918.02     
     21000   308.47281     -8722.8153     -2591.1257      33986.603    
     21100   305.47021     -8721.3983     -1501.7403      34008.365    
     21200   307.21647     -8723.3351      548.23757      33908.375    
     21300   299.6818      -8724.593      -1019.3934      33987.553    
     21400   294.6495      -8723.645       163.80907      33973.593    
     21500   295.35734     -8721.9543      187.59942      33935.381    
     21600   305.55084     -8721.8814      3009.8593      33920.404    
     21700   307.7729      -8722.3992      872.3172       33920.286    
     21800   299.32139     -8721.3854     -3804.4854      34058.141    
     21900   300.06471     -8722.7405      1649.6175      33907.798    
     22000   307.95628     -8726.417       1618.0907      33925.45     
     22100   298.83591     -8726.1838     -998.717        33961.874    
     22200   295.78672     -8725.37        995.30048      33939.429    
     22300   298.15535     -8725.756       31.0449        33986.422    
     22400   293.64015     -8724.4614     -955.87367      33953.306    
     22500   301.69446     -8725.4373      1158.2603      33873.776    
     22600   294.75321     -8724.3209      123.04142      33932.007    
     22700   306.78108     -8727.1823     -2868.3403      33978.462    
     22800   306.06756     -8726.8928     -47.028055      33927.493    
     22900   294.96255     -8725.2196     -1071.8675      33917.53     
     23000   299.20249     -8728.6452     -674.98313      33957.432    
     23100   293.30662     -8728.6926     -231.30673      33893.281    
     23200   299.14903     -8728.2874     -124.96412      33929.053    
     23300   303.34017     -8726.6464      2227.0412      33935.966    
     23400   313.44304     -8728.9041     -803.31712      33937.76     
     23500   296.08832     -8726.1421     -1882.305       33953.317    
     23600   299.01375     -8728.8744     -737.53424      33955.452    
     23700   302.26598     -8730.8743      1304.3544      33890.91     
     23800   300.27743     -8731.1401     -1027.6943      33958.678    
     23900   296.86233     -8732.151       1280.7723      33905.822    
     24000   288.0234      -8732.8947     -1416.1247      33932.827    
     24100   297.89087     -8734.3676     -2881.7266      33929.246    
     24200   305.87512     -8733.1291      2079.61        33888.709    
     24300   302.4273      -8732.0897     -1532.4561      33918.09     
     24400   302.96059     -8732.9055     -3313.4955      34005.029    
     24500   301.63264     -8734.7303      2483.6662      33860.719    
     24600   297.42778     -8735.9314     -698.53166      33905.603    
     24700   294.15788     -8734.9419     -85.994689      33921.658    
     24800   306.53831     -8733.7561      748.48472      33901.988    
     24900   312.86586     -8734.063      -2409.2596      33971.048    
     25000   303.58221     -8733.7421      1089.5536      33894.537    
     25100   295.24793     -8734.4006      2241.4745      33870.515    
     25200   295.11134     -8734.623      -3958.1674      33947.676    
     25300   295.92876     -8733.7239     -204.40512      33913.773    
     25400   300.56292     -8732.1731      1533.487       33856.505    
     25500   302.22512     -8729.7395     -443.63616      33946.379    
     25600   302.99755     -8732.324      -2470.6585      33919.64     
     25700   293.85665     -8733.6506     -1857.5488      33945.428    
     25800   294.06425     -8734.2638     -2526.0788      33941.715    
     25900   303.60601     -8735.6111     -893.23756      33904.375    
     26000   305.18844     -8735.0591     -739.31191      33922.274    
     26100   298.07037     -8733.0346     -334.50557      33912.597    
     26200   306.87267     -8735.1163     -1653.4715      33911.771    
     26300   296.27972     -8734.6482      256.90858      33904.25     
     26400   291.77334     -8735.4974     -92.852985      33880.448    
     26500   295.9947      -8735.359      -2179.3644      33922.912    
     26600   303.43339     -8733.6128      801.08645      33913.381    
     26700   305.37865     -8733.702       1707.7382      33905.962    
     26800   299.38736     -8733.8733     -2622.443       33940.957    
     26900   297.75388     -8735.5         417.05421      33905.656    
     27000   296.89657     -8736.3014      1120.6942      33901.65     
     27100   296.40206     -8736.0013     -882.60063      33920.944    
     27200   298.49085     -8736.4041      1146.8189      33881.145    
     27300   301.27645     -8736.8237     -2011.0913      33981.34     
     27400   300.18372     -8736.526      -1041.5407      33947.638    
     27500   303.16161     -8737.0556      3811.9641      33863.46     
     27600   299.1302      -8736.1574      1998.7394      33886.1      
     27700   303.17908     -8737.2332     -1161.0453      33931.952    
     27800   298.75356     -8736.8361     -1642.1372      33911.115    
     27900   297.82334     -8738.9661      1583.9458      33880.395    
     28000   301.19498     -8740.9994      58.578233      33890.611    
     28100   306.09861     -8740.1868     -466.3379       33897.796    
     28200   297.40429     -8735.9773     -392.48014      33868.394    
     28300   309.75142     -8738.2486     -2164.616       33939.123    
     28400   305.30719     -8738.3597     -185.37874      33865.333    
     28500   302.82028     -8739.1542     -1366.4656      33901.008    
     28600   298.3825      -8739.0737     -511.63576      33878.738    
     28700   301.47194     -8740.315      -2309.2895      33907.476    
     28800   301.62391     -8739.6879     -1073.4057      33938.533    
     28900   300.65845     -8737.1287      3124.9478      33831.604    
     29000   299.08156     -8735.7511      552.63922      33894.825    
     29100   303.16733     -8738.2713      1318.5802      33892.771    
     29200   301.6927      -8740.9465      1376.715       33862.431    
     29300   296.024       -8740.3932     -137.77955      33896.631    
     29400   296.07335     -8739.3458      1643.1245      33917.302    
     29500   300.85688     -8738.8394      486.70985      33905.129    
     29600   305.06345     -8737.4288      64.390784      33918.704    
     29700   307.5708      -8738.0398     -108.62976      33908.121    
     29800   301.01488     -8740.4898      1914.6366      33866.218    
     29900   295.24641     -8740.7083     -825.06537      33866.596    
     30000   288.21013     -8739.8457     -4312.2636      33981.815    
Loop time of 315.738 on 16 procs for 30000 steps with 1810 atoms

Performance: 8.209 ns/day, 2.924 hours/ns, 95.015 timesteps/s, 171.978 katom-step/s
100.0% CPU use with 4 MPI tasks x 4 OpenMP threads

MPI task timing breakdown:
Section |  min time  |  avg time  |  max time  |%varavg| %total
---------------------------------------------------------------
Pair    | 132.57     | 223.54     | 310.37     | 580.6 | 70.80
Neigh   | 0.099652   | 0.10178    | 0.10398    |   0.5 |  0.03
Comm    | 4.4043     | 91.209     | 182.15     | 908.6 | 28.89
Output  | 0.0036173  | 0.016508   | 0.05498    |  17.3 |  0.01
Modify  | 0.7013     | 0.73373    | 0.7576     |   2.4 |  0.23
Other   |            | 0.1406     |            |       |  0.04

Nlocal:          452.5 ave         479 max         429 min
Histogram: 2 0 0 0 0 0 0 0 1 1
Nghost:        1394.75 ave        1411 max        1383 min
Histogram: 1 0 1 0 1 0 0 0 0 1
Neighs:              0 ave           0 max           0 min
Histogram: 4 0 0 0 0 0 0 0 0 0
FullNghs:        21200 ave       24151 max       18466 min
Histogram: 2 0 0 0 0 0 0 0 0 2

Total # of neighbors = 84800
Ave neighs/atom = 46.850829
Neighbor list builds = 109
Dangerous builds = 0

unfix           1
reset_timestep  0

compute         msd_si si_atoms msd
compute         msd_ti ti_atoms msd
compute         pe_atom all pe/atom
compute         ke_atom all ke/atom

thermo_style    custom step temp pe press vol c_msd_si[4] c_msd_ti[4]
thermo          1000

dump            1 all custom 10000 dump.anneal.lammpstrj id type x y z vx vy vz c_pe_atom c_ke_atom

fix             2 all npt temp 300.0 623.15 0.1 iso 0.0 0.0 1.0

run             200000
Per MPI rank memory allocation (min/avg/max) = 6.992 | 6.997 | 7.001 Mbytes
   Step          Temp          PotEng         Press          Volume      c_msd_si[4]    c_msd_ti[4]  
         0   288.21013     -8739.8457     -4312.2636      33981.815      2.2296465e-32  2.5750397e-34
      1000   311.31718     -8741.5614     -689.37855      33903.374      0.034124119    0.071068001  
      2000   315.41285     -8747.283      -912.99741      33892.127      0.035653271    0.086798736  
      3000   308.01167     -8753.0656      2700.582       33802.936      0.052077203    0.10721107   
      4000   303.79396     -8755.6575     -1450.6089      33863.502      0.063753691    0.1264494    
      5000   313.91436     -8757.2781     -797.49755      33856.778      0.068341544    0.15515669   
      6000   304.37077     -8756.9309     -448.67518      33870.601      0.077973044    0.15935824   
      7000   320.13748     -8761.0508      2374.3077      33846.712      0.079786287    0.17618091   
      8000   314.39198     -8773.802       1131.7194      33766.424      0.13635731     0.2263492    
      9000   310.21122     -8783.3602     -2100.9907      33824.581      0.16226415     0.27867907   
     10000   315.62491     -8787.9758      295.95078      33808.754      0.18013708     0.30788879   
     11000   317.39922     -8793.9636      1524.9565      33741.644      0.20854432     0.33773853   
     12000   309.30381     -8797.7678     -930.39902      33725.322      0.20820587     0.37881384   
     13000   322.11417     -8808.4617      649.91565      33712.131      0.22690564     0.41103004   
     14000   319.1819      -8803.7589      750.27877      33714.893      0.22879675     0.39640859   
     15000   326.80217     -8809.3153     -353.98307      33774.707      0.24720791     0.42919423   
     16000   324.62073     -8812.4495     -1646.8166      33771.56       0.25798279     0.4374813    
     17000   326.9183      -8814.9611     -835.49578      33683.294      0.27479612     0.44875946   
     18000   338.96649     -8811.1094     -182.40059      33726.438      0.2743875      0.44111886   
     19000   334.61512     -8813.7443      1186.6447      33667.651      0.28784792     0.45274412   
     20000   329.26657     -8819.0409      3504.6775      33655.982      0.29284558     0.45690395   
     21000   339.87913     -8816.3008     -1530.8832      33769.908      0.30544206     0.46298432   
     22000   342.43911     -8818.6716      2413.3503      33624.777      0.30463471     0.46726539   
     23000   341.80248     -8818.1546     -2332.8845      33690.397      0.31342098     0.47716137   
     24000   344.21694     -8821.7411     -800.13569      33655.169      0.32072759     0.48184704   
     25000   339.38252     -8820.9893     -995.30661      33701.066      0.33131805     0.48027765   
     26000   332.31628     -8818.4601      188.88347      33708.362      0.32892253     0.46029094   
     27000   344.88671     -8820.1733      2241.9397      33677.954      0.33866275     0.50268209   
     28000   329.23279     -8819.8236      213.84091      33680.621      0.33480624     0.46765716   
     29000   352.42635     -8819.9446      1001.6437      33675.946      0.34091467     0.48635487   
     30000   355.31379     -8818.9999     -279.32166      33711.368      0.33446338     0.47546289   
     31000   361.91151     -8821.1491     -1046.9123      33680.532      0.33621144     0.48121943   
     32000   349.91717     -8818.686       456.46512      33739.108      0.35131564     0.49220366   
     33000   353.73576     -8822.1345      1256.4691      33734.677      0.35994413     0.49276913   
     34000   354.54951     -8818.7213     -3517.4249      33757.3        0.33775467     0.48504489   
     35000   349.87989     -8821.492       1735.3059      33674.173      0.35626696     0.51659909   
     36000   356.96053     -8824.0438     -1164.327       33712.711      0.36595533     0.51381935   
     37000   365.97027     -8822.9063     -3150.4135      33761.956      0.36670196     0.50795105   
     38000   362.22468     -8826.8966     -2380.8121      33689.165      0.37114076     0.50855158   
     39000   344.37037     -8824.0855      420.71449      33669.062      0.37292183     0.52013813   
     40000   365.81776     -8821.5642     -1757.9275      33712.079      0.38875126     0.53093634   
     41000   368.00157     -8824.8981     -3198.69        33717.258      0.40425787     0.53544563   
     42000   378.00802     -8822.9018     -1915.6649      33756.292      0.4076086      0.54620531   
     43000   375.02469     -8825.5627     -2495.7118      33753.499      0.41234373     0.54133423   
     44000   365.85437     -8826.5917     -2423.3288      33753.178      0.42087113     0.56715208   
     45000   376.00524     -8827.5914      4.8493394      33689.911      0.41596096     0.59030516   
     46000   366.1161      -8829.6866     -1376.6148      33679.586      0.44009449     0.58599797   
     47000   377.8528      -8829.336       2389.1908      33651.908      0.42442314     0.58565855   
     48000   378.77142     -8831.2323     -752.81794      33673.842      0.42825882     0.61749335   
     49000   372.49847     -8832.958       2137.9177      33649.394      0.44331807     0.61241238   
     50000   373.79638     -8831.2866      205.64063      33674.08       0.41280873     0.62516966   
     51000   383.82711     -8833.3877      2074.2347      33656.842      0.43718838     0.63421734   
     52000   379.93717     -8838.0572     -1547.1294      33696.116      0.45467763     0.68450008   
     53000   374.12449     -8841.7409     -1641.1071      33658.618      0.46406265     0.67826474   
     54000   385.29633     -8841.248      -1376.8998      33640.681      0.49009986     0.7072113    
     55000   390.15481     -8844.4912     -1489.9804      33655.044      0.4654399      0.69499137   
     56000   388.16954     -8848.813      -379.67813      33583.277      0.51681174     0.72968578   
     57000   380.87593     -8849.0865     -2474.99        33631.622      0.51903445     0.74018126   
     58000   380.29361     -8850.8201      1806.3071      33562.414      0.52802427     0.74722016   
     59000   392.67673     -8857.4302     -116.4197       33599.998      0.5480686      0.74532758   
     60000   404.51026     -8856.3068     -268.58103      33631.094      0.53853648     0.75340696   
     61000   392.50196     -8856.2742      862.30686      33583.05       0.56689708     0.75433779   
     62000   396.29683     -8858.5553     -622.93395      33604.188      0.56105906     0.77866608   
     63000   409.13119     -8857.8168     -2583.8272      33607.574      0.56968834     0.75030378   
     64000   402.82206     -8862.207      -2333.8081      33640.797      0.56461408     0.7558561    
     65000   415.59998     -8862.8436     -2334.6369      33602.737      0.58448748     0.78405627   
     66000   394.31209     -8861.4752     -1577.2293      33625.69       0.58680513     0.79347085   
     67000   412.77975     -8860.0846     -3050.5403      33621.266      0.60493631     0.82278179   
     68000   410.68054     -8859.0783      565.69407      33595.079      0.59933641     0.81108931   
     69000   409.96258     -8857.5927      354.42003      33606.778      0.58590202     0.79523448   
     70000   411.47268     -8856.6966     -40.892518      33614.984      0.62981955     0.83221519   
     71000   408.35645     -8858.5802      1054.0385      33584.811      0.60768038     0.80179311   
     72000   422.95785     -8865.3984     -559.14354      33627.287      0.59404583     0.84548581   
     73000   436.84299     -8866.4274     -548.55452      33642.961      0.63347448     0.88692569   
     74000   410.40135     -8868.5748     -1115.5728      33639.26       0.63633123     0.88585707   
     75000   409.40979     -8870.2443      1390.2067      33596.291      0.62879348     0.9123134    
     76000   420.56055     -8872.3811      2041.1399      33567.246      0.62685893     0.88795561   
     77000   423.65108     -8870.634       1477.8023      33582.98       0.64627815     0.90637574   
     78000   422.26978     -8873.0894     -4879.9326      33667.311      0.67823311     0.90784234   
     79000   411.43117     -8870.6899     -753.10609      33614.077      0.65281019     0.92507678   
     80000   430.48485     -8870.2851      236.78912      33547.895      0.66990581     0.92848767   
     81000   431.66436     -8876.6585      544.17485      33576.887      0.67601034     0.94780021   
     82000   433.27847     -8876.4758     -394.8489       33585.122      0.67346037     0.94012523   
     83000   425.99769     -8880.2073      1033.5145      33502.36       0.66045891     0.94415071   
     84000   437.43479     -8880.1314     -1451.5893      33533.122      0.67066181     0.94746846   
     85000   419.08762     -8880.0471     -3073.9987      33599.252      0.67773761     0.99028779   
     86000   439.65719     -8880.434       262.33269      33520.494      0.69998737     0.99590477   
     87000   438.67183     -8885.0076      1333.0222      33540.373      0.67620518     1.0195258    
     88000   449.74099     -8883.6761     -2403.8656      33530.791      0.71430523     1.0231055    
     89000   430.09861     -8889.6607     -1088.843       33560.76       0.70505634     1.0095278    
     90000   458.31258     -8885.0543      1415.5561      33521.025      0.71419024     1.0322132    
     91000   450.4582      -8886.9101      1918.9109      33476.87       0.7467873      1.0372317    
     92000   447.16994     -8890.2159      1683.3721      33488.341      0.74947053     1.0370968    
     93000   433.28012     -8895.088       1309.291       33457.776      0.76937439     1.0611898    
     94000   450.84773     -8895.4402     -1837.6804      33486.361      0.78017593     1.0745834    
     95000   460.0253      -8898.5604      2515.6501      33352.127      0.79775148     1.0900149    
     96000   461.3319      -8902.7357      1752.9144      33434.775      0.82541787     1.0912462    
     97000   449.30029     -8900.1612      769.40571      33457.5        0.80411836     1.0837231    
     98000   474.61497     -8900.4406     -2308.4749      33525.342      0.82973734     1.1033922    
     99000   454.87188     -8899.2278      2281.1088      33411.304      0.82865078     1.1060444    
    100000   452.07783     -8905.0187      3525.2677      33409.886      0.82267412     1.1129709    
    101000   465.13565     -8904.218      -648.25836      33370.624      0.8450519      1.1003572    
    102000   472.71747     -8906.9764     -1269.8566      33382.607      0.83529877     1.1266629    
    103000   467.93429     -8909.4467     -220.02914      33282.346      0.8858001      1.1680919    
    104000   470.36904     -8910.4202     -118.49285      33273.512      0.89100159     1.1879649    
    105000   478.26775     -8917.9926     -393.40271      33262.333      0.88791183     1.1767944    
    106000   463.45682     -8916.4416      1481.7643      33289.342      0.89484243     1.1444182    
    107000   480.29289     -8913.625      -2277.7633      33353.287      0.94814043     1.1767146    
    108000   478.70678     -8919.6783      110.33191      33270.011      0.94098015     1.2339938    
    109000   473.39764     -8918.0472     -99.57884       33286.187      0.94839539     1.2282211    
    110000   495.78224     -8918.2008     -291.39291      33317.387      0.9469565      1.2473278    
    111000   476.51625     -8923.3957      1890.8814      33218.499      0.96230596     1.2379129    
    112000   480.93273     -8919.798       913.45163      33289.003      0.95709295     1.2470957    
    113000   480.95508     -8921.8747      1161.4078      33234.575      0.95948473     1.2277795    
    114000   493.8365      -8920.2148     -1910.4616      33349.498      0.99442355     1.2399422    
    115000   488.53888     -8920.2967     -279.17156      33273.533      0.9708685      1.242845     
    116000   493.83599     -8919.8289     -82.242247      33311.809      1.0026139      1.2775804    
    117000   488.15556     -8922.2957     -1390.2649      33259.786      0.96745177     1.225906     
    118000   490.10499     -8919.2812     -1183.8092      33286.208      0.98918767     1.2353639    
    119000   502.15299     -8924.1306      3260.228       33182.176      1.003598       1.2947784    
    120000   492.56829     -8921.8591     -1142.9308      33258.902      1.0134309      1.3219172    
    121000   496.86727     -8932.2167      2788.049       33214.47       1.024694       1.2891988    
    122000   500.20252     -8934.2527      2137.3371      33186.446      1.0475655      1.3570234    
    123000   496.01901     -8933.6523      1483.0006      33157.698      1.0487371      1.3445102    
    124000   504.73816     -8935.4864      853.22098      33149.071      1.0376001      1.3839759    
    125000   496.93951     -8939.4924      3207.7178      33137.147      1.0556934      1.3355229    
    126000   505.08169     -8938.4135      2215.1955      33138.033      1.0695794      1.4070754    
    127000   491.00809     -8940.8136      2038.1897      33167.669      1.1064978      1.447339     
    128000   527.00629     -8943.4919     -961.12072      33168.654      1.1046109      1.4505618    
    129000   503.04924     -8943.9575      3673.2235      33154.259      1.1085215      1.5060865    
    130000   506.15343     -8944.7215      481.15755      33126.259      1.147431       1.5061306    
    131000   508.39886     -8952.8663      93.870384      33119.117      1.1319463      1.531465     
    132000   537.22582     -8953.9794      1008.6627      33024.784      1.1458758      1.5172449    
    133000   520.25953     -8958.3277      3402.6644      33058.568      1.1528853      1.5842288    
    134000   513.68686     -8962.5042     -703.14625      33087.895      1.1734231      1.5932111    
    135000   522.80357     -8961.2937     -2118.0307      33131.966      1.17939        1.589211     
    136000   512.21338     -8963.8776     -2253.1229      33086.519      1.1763657      1.5483083    
    137000   517.53421     -8964.866       652.53828      33096.746      1.2074386      1.5610065    
    138000   546.96676     -8967.1843      500.83759      33001.62       1.2027625      1.6085515    
    139000   518.76747     -8970.6973     -3335.0644      33127.69       1.2360541      1.6245461    
    140000   528.45026     -8966.8816      1301.2615      33057.502      1.2349346      1.6539761    
    141000   530.36583     -8972.3368     -753.63905      33074.16       1.216972       1.6566948    
    142000   526.30471     -8974.3375     -1314.1153      33038.981      1.2484943      1.688511     
    143000   558.73076     -8972.1891     -926.73114      33066.167      1.2746466      1.7903693    
    144000   532.02501     -8981.2855     -1214.1085      32992.944      1.3045798      1.7745232    
    145000   520.53655     -8984.6185     -2566.3471      33046.66       1.322106       1.8762905    
    146000   544.32948     -8993.2171     -1405.4398      32936.924      1.3511344      1.9082974    
    147000   542.95848     -8994.8904     -470.44742      32973.72       1.3643092      1.9293056    
    148000   532.0967      -8995.64        543.56856      32910.67       1.3728384      1.9522042    
    149000   534.53666     -8998.348       1306.5277      32931.323      1.4140751      1.9887053    
    150000   550.69583     -8995.3323     -1190.2903      32982.388      1.4590791      1.9964231    
    151000   542.96673     -9000.0132     -1722.5718      32948.565      1.4495471      2.0166686    
    152000   524.30451     -9004.0446     -1806.0128      32950.593      1.4625248      2.0715781    
    153000   540.80222     -9004.6608     -2371.6604      32969.379      1.4787294      2.0926956    
    154000   562.34064     -9003.999      -1712.9236      33004.099      1.5058795      2.028417     
    155000   564.31129     -9004.9244      1455.7487      32941.423      1.4726522      2.1120783    
    156000   551.69073     -9004.955      -3602.5962      32999.008      1.5410852      2.1386319    
    157000   555.55534     -9011.8708      1066.3645      32936.325      1.508629       2.1905087    
    158000   550.09198     -9014.9629      1304.3056      32951.987      1.5756976      2.1856635    
    159000   548.43085     -9013.0436      169.82904      32964.638      1.5791394      2.2189042    
    160000   551.69627     -9018.6176      2223.6811      32884.767      1.6018531      2.306812     
    161000   559.71817     -9028.3281      872.59412      32887.807      1.5933067      2.3068497    
    162000   570.95406     -9029.7139     -2283.0187      32929.127      1.6318132      2.3992395    
    163000   552.35876     -9026.7844     -3682.0325      32912.814      1.6659278      2.4305708    
    164000   570.12384     -9039.5693      1457.3626      32842.416      1.6658329      2.4285708    
    165000   564.11541     -9045.6183      328.54801      32854.718      1.6941106      2.5195309    
    166000   567.38291     -9046.7884      1928.7264      32801.251      1.6469877      2.4941436    
    167000   561.02788     -9046.6177     -2439.8686      32866.664      1.6879267      2.4889653    
    168000   568.52768     -9043.7627      4247.2631      32744.379      1.7280746      2.5330061    
    169000   564.17583     -9051.341       840.35058      32807.045      1.7646436      2.5284017    
    170000   584.09635     -9048.0243     -161.52817      32795.032      1.7604659      2.5105472    
    171000   567.96661     -9050.4524      2465.6855      32813.797      1.7977617      2.4962594    
    172000   577.07026     -9050.0633     -5510.9254      32924.908      1.8129429      2.5330599    
    173000   586.23914     -9050.6086      1353.7665      32819.84       1.8525439      2.5654933    
    174000   572.26892     -9059.5874     -1434.9251      32795.939      1.839881       2.5362186    
    175000   575.42537     -9062.8397     -64.985852      32827.383      1.8861088      2.6212802    
    176000   580.36261     -9060.8156     -925.36546      32791.357      1.8732804      2.5958056    
    177000   583.74386     -9065.416       368.25187      32756.986      1.9337256      2.6411799    
    178000   585.23419     -9061.1516      2433.7948      32733.859      1.8921007      2.6419039    
    179000   588.10967     -9070.1075     -475.75666      32765.849      1.9796547      2.6756487    
    180000   599.11563     -9069.164       2357.4247      32693.02       1.9480075      2.6905894    
    181000   581.57325     -9069.527       2645.6031      32698.038      1.926804       2.7050028    
    182000   598.32219     -9070.2579     -1942.0263      32738.351      1.9861394      2.7106637    
    183000   609.63964     -9079.6096      1617.3435      32717.09       1.9395449      2.7302373    
    184000   589.69244     -9068.8114      626.11022      32732.513      1.8975551      2.7060259    
    185000   589.34769     -9076.1582      1123.5421      32686.301      1.9521334      2.7883552    
    186000   594.52139     -9075.0648     -1054.547       32731.236      2.0429771      2.8307159    
    187000   623.8152      -9074.9766      1720.5328      32700.042      2.0197945      2.8278217    
    188000   589.02258     -9074.1202      4149.9741      32592.932      2.0410105      2.9136837    
    189000   600.90447     -9077.8268      3073.1674      32629.489      2.0138101      2.8595091    
    190000   596.77173     -9078.4121      1787.6249      32657.127      1.9956799      2.8420912    
    191000   595.07114     -9079.5177     -2867.361       32686.768      2.1084835      2.8707087    
    192000   621.95457     -9075.5285     -4402.3303      32736.16       2.0167462      2.8277447    
    193000   596.0885      -9077.9415      428.40032      32672.164      2.0213486      2.8276108    
    194000   614.91721     -9081.4909      1948.18        32691.433      2.0471135      2.8875853    
    195000   595.51944     -9082.4544      2745.7671      32660.717      2.0402166      2.8354543    
    196000   616.6729      -9081.2365     -1871.5984      32751.645      2.0820172      2.8991909    
    197000   615.95311     -9089.2255     -2677.5531      32762.138      2.1238457      3.0046366    
    198000   593.12553     -9088.6801     -489.85817      32731.681      2.1685941      3.0981587    
    199000   638.38972     -9089.3892     -645.7102       32693.859      2.1522183      3.0934072    
    200000   625.8898      -9087.1304     -1860.9646      32698.74       2.148768       3.0959311    
Loop time of 2265.66 on 16 procs for 200000 steps with 1810 atoms

Performance: 7.627 ns/day, 3.147 hours/ns, 88.275 timesteps/s, 159.777 katom-step/s
100.0% CPU use with 4 MPI tasks x 4 OpenMP threads

MPI task timing breakdown:
Section |  min time  |  avg time  |  max time  |%varavg| %total
---------------------------------------------------------------
Pair    | 1051.4     | 1634.2     | 2252.8     |1435.5 | 72.13
Neigh   | 0.74532    | 0.78024    | 0.81608    |   3.6 |  0.03
Comm    | 6.4848     | 625.04     | 1207.7     |2320.7 | 27.59
Output  | 0.041981   | 0.050742   | 0.075112   |   6.2 |  0.00
Modify  | 4.5516     | 4.6427     | 4.7165     |   2.7 |  0.20
Other   |            | 0.9667     |            |       |  0.04

Nlocal:          452.5 ave         476 max         427 min
Histogram: 1 0 1 0 0 0 0 0 1 1
Nghost:           1440 ave        1467 max        1412 min
Histogram: 1 0 0 1 0 0 1 0 0 1
Neighs:              0 ave           0 max           0 min
Histogram: 4 0 0 0 0 0 0 0 0 0
FullNghs:        21737 ave       24271 max       19081 min
Histogram: 1 1 0 0 0 0 0 0 0 2

Total # of neighbors = 86948
Ave neighs/atom = 48.037569
Neighbor list builds = 728
Dangerous builds = 0

unfix           2

fix             3 all npt temp 623.15 623.15 0.1 iso 0.0 0.0 1.0

run             2000000
Per MPI rank memory allocation (min/avg/max) = 8.529 | 8.534 | 8.538 Mbytes
   Step          Temp          PotEng         Press          Volume      c_msd_si[4]    c_msd_ti[4]  
    200000   625.8898      -9087.1304     -1860.9646      32698.74       2.148768       3.0959311    
    201000   620.54428     -9090.1688     -3346.5617      32663.164      2.1218837      3.0527948    
    202000   621.96899     -9090.9381      2267.809       32667.766      2.1389367      3.0519506    
    203000   625.59249     -9089.5163      196.74921      32677.898      2.229244       3.1874889    
    204000   617.51032     -9093.4923      139.46068      32660.336      2.1461632      3.161364     
    205000   619.0819      -9089.9786      2434.728       32575.092      2.1449684      3.2088522    
    206000   623.08298     -9091.8913      573.01002      32623.152      2.2382649      3.3114047    
    207000   594.5007      -9094.6784     -441.41956      32638.819      2.2414388      3.3605008    
    208000   641.24941     -9097.7077      1617.8121      32657.22       2.259237       3.3535628    
    209000   614.13402     -9098.8476      1525.9544      32651.185      2.2528033      3.3642813    
    210000   617.8772      -9096.3784      476.69537      32645.033      2.2538703      3.4475765    
    211000   625.7254      -9101.5518      2817.4086      32599.401      2.2799683      3.5589191    
    212000   617.68649     -9102.6431      1185.3151      32606.546      2.272219       3.6056096    
    213000   615.09791     -9106.1046     -1129.7339      32643.626      2.3050241      3.5812022    
    214000   639.19903     -9104.9741     -1602.6691      32686.789      2.3013342      3.6236274    
    215000   613.18134     -9105.7279      4769.1475      32502.432      2.3364284      3.6277567    
    216000   624.38176     -9103.5313     -4186.7312      32732.963      2.3364322      3.6896042    
    217000   629.24307     -9115.0581     -863.04469      32602.663      2.3268362      3.6409929    
    218000   639.6183      -9112.8552      2478.0583      32523.268      2.3732961      3.7688754    
    219000   645.61104     -9116.1581      938.47518      32565.537      2.3898102      3.6930703    
    220000   638.21846     -9114.4801      4165.1273      32515.791      2.3405012      3.739057     
    221000   627.23051     -9108.4304      2021.4927      32563.328      2.4078784      3.8149618    
    222000   605.38712     -9115.1242      313.31551      32585.699      2.4025223      3.888143     
    223000   629.33216     -9113.257       2806.9291      32553.115      2.3676518      3.8607081    
    224000   622.78194     -9127.3243      754.54728      32562.835      2.4223099      3.8816408    
    225000   621.99509     -9123.4177     -457.85537      32564.548      2.4467565      3.9547148    
    226000   634.96658     -9125.2549      251.8127       32510.006      2.4198213      3.9948407    
    227000   617.54297     -9127.2321      408.55978      32556.708      2.4239099      4.0433114    
    228000   609.92238     -9129.3894     -3176.4254      32560.002      2.4517517      4.1060095    
    229000   633.3227      -9128.2389     -2230.2357      32598.051      2.4832255      4.1101018    
    230000   608.835       -9134.3712     -5739.3818      32647.627      2.4782109      4.1241001    
    231000   641.5976      -9141.7229      1275.1919      32542.525      2.5100667      4.1022901    
    232000   637.50112     -9137.2545     -155.36382      32559.766      2.6050501      4.2235941    
    233000   618.34048     -9142.9278     -167.72495      32558.479      2.6091753      4.1636776    
    234000   603.11051     -9145.1068     -440.6826       32550.442      2.6053161      4.1878514    
    235000   623.13612     -9149.2974     -4825.6024      32598.728      2.6747846      4.2799138    
    236000   625.61587     -9147.338       195.22302      32533.739      2.6348984      4.258213     
    237000   609.50243     -9150.2728     -522.51132      32555.682      2.6727829      4.3031477    
    238000   629.25028     -9151.1685      529.87302      32526.779      2.7413256      4.3426289    
    239000   605.69171     -9155.2141     -2597.8353      32511.157      2.707128       4.2805563    
    240000   626.9141      -9161.178       1561.033       32474.86       2.7576489      4.4152937    
    241000   614.05274     -9159.1758      1632.8669      32492.711      2.7252888      4.3741719    
    242000   617.85349     -9162.9717     -212.07554      32542.101      2.7543619      4.3749589    
    243000   645.45068     -9165.1872      2055.1473      32494.825      2.7600545      4.4535124    
    244000   624.37233     -9167.0153      1149.633       32460.504      2.7220899      4.407922     
    245000   628.137       -9162.9154     -966.12191      32537.287      2.7755216      4.4318436    
    246000   619.93095     -9164.0419     -1142.9797      32504.693      2.7357611      4.4012772    
    247000   624.3761      -9162.3436     -451.37518      32497.078      2.7229701      4.4369685    
    248000   628.73926     -9158.5344      2471.5396      32481.491      2.8060187      4.4374595    
    249000   618.91611     -9168.9958     -2511.1297      32501.335      2.8645801      4.4859425    
    250000   615.01174     -9176.5373     -1516.8078      32517.356      2.8884399      4.5769302    
    251000   616.23344     -9172.4523     -2374.3428      32497.202      2.9126575      4.532384     
    252000   637.83392     -9170.7445     -1015.1243      32483.231      2.946166       4.5827591    
    253000   621.94331     -9177.6915     -990.15115      32503.822      2.978796       4.5667712    
    254000   633.39196     -9176.2495     -813.61922      32527.637      2.8932775      4.6233246    
    255000   631.73493     -9185.1177     -2009.209       32522.616      2.945597       4.6378673    
    256000   647.59869     -9186.4711      1928.485       32421.394      2.9086664      4.6674201    
    257000   624.07194     -9177.5825     -1915.6614      32504.846      2.9655974      4.6666696    
    258000   616.03499     -9180.9315      457.79023      32445.254      2.990769       4.6799616    
    259000   642.93736     -9185.8247      3247.5435      32420.62       2.9750631      4.7934496    
    260000   628.79738     -9189.3683     -950.18822      32467.665      2.9841478      4.8011352    
    261000   612.66601     -9186.7256     -1453.7951      32454.489      2.9658952      4.7714321    
    262000   630.53397     -9190.7342     -1617.2151      32440.97       3.0149921      4.8317885    
    263000   615.89584     -9193.2172     -4016.0746      32530.865      3.0504361      4.8421492    
    264000   613.2887      -9189.6532     -87.705595      32464.585      3.0231443      4.7949294    
    265000   596.78708     -9189.8008     -2647.2402      32472.358      2.9986533      4.882202     
    266000   629.05096     -9192.1294     -2986.04        32494.661      3.0184979      4.8550634    
    267000   633.73715     -9193.5387     -84.733796      32466.401      3.0798656      4.9057521    
    268000   613.47003     -9194.4408      449.47682      32412.404      3.1148076      4.8604967    
    269000   631.58287     -9199.7517      1710.8553      32394.427      3.1173774      4.9689288    
    270000   631.61213     -9203.9222     -1744.709       32454.979      3.0729416      5.0002975    
    271000   616.38176     -9201.1818     -1651.4062      32438.616      3.0773347      5.0001821    
    272000   620.24374     -9198.9781      616.23617      32435.096      3.1907225      5.0696719    
    273000   616.06189     -9204.8292      1352.7491      32410.495      3.1347976      4.9981503    
    274000   616.37335     -9204.0482     -1702.7082      32440.645      3.0840612      5.001955     
    275000   618.35914     -9208.9559      2931.0494      32325.864      3.0851364      4.9716183    
    276000   642.1893      -9202.4498     -532.54886      32478.067      3.1312697      5.0348609    
    277000   634.46212     -9208.8749     -220.53033      32330.376      3.1418106      5.0683462    
    278000   632.96415     -9206.0881     -1666.0064      32456.845      3.1506435      5.1506999    
    279000   604.80599     -9205.0028      622.67277      32375.027      3.1550288      5.0999136    
    280000   625.45417     -9203.5626     -654.75744      32420.147      3.1233706      5.077546     
    281000   614.2588      -9208.5419      5445.9025      32302.259      3.1406567      5.110955     
    282000   654.68474     -9208.5137     -3012.9313      32425.714      3.1766271      5.1440007    
    283000   633.08758     -9211.0331      1976.6916      32385.344      3.1531581      5.1281479    
    284000   656.9874      -9212.7138      1087.3684      32384.817      3.1326694      5.0963615    
    285000   618.40659     -9212.5679      1197.3137      32360.586      3.2306361      5.0931261    
    286000   642.2591      -9207.0252      2311.2929      32363.657      3.1664021      5.1201908    
    287000   610.42596     -9208.8069     -1692.6253      32412.191      3.1882187      5.1161921    
    288000   644.66426     -9209.4202     -326.26823      32418.839      3.2338623      5.2166193    
    289000   608.3332      -9210.9319     -1899.0526      32415.339      3.1762736      5.1146231    
    290000   641.35421     -9213.1094      40.111474      32398.188      3.1851615      5.1640463    
    291000   630.90034     -9209.9963     -1550.1632      32467.072      3.2659775      5.177965     
    292000   627.12248     -9219.0646     -2309.7603      32426.882      3.1998495      5.1780165    
    293000   629.60226     -9211.4453     -1015.6047      32432.145      3.1764119      5.2402702    
    294000   598.62825     -9214.8951      1231.6576      32353.878      3.2236941      5.3056819    
    295000   618.75033     -9217.7008      1129.701       32296.398      3.2295075      5.2901469    
    296000   617.87807     -9213.2799      1761.8528      32272.596      3.1997652      5.2543854    
    297000   612.43905     -9217.74        1137.9456      32335.038      3.2062867      5.2766448    
    298000   623.35217     -9212.2992     -2633.0677      32417.055      3.2637104      5.4152978    
    299000   621.50893     -9220.0887     -3859.4261      32377.757      3.2953134      5.3929879    
    300000   643.46163     -9219.5906     -817.64376      32343.404      3.2183889      5.4323474    
    301000   612.28027     -9224.2565     -124.15239      32416.807      3.3440621      5.4462093    
    302000   623.21356     -9216.7301     -797.63683      32398.049      3.294615       5.4389431    
    303000   602.40118     -9224.2504      370.23806      32378.971      3.2957741      5.4811125    
    304000   625.89508     -9218.4533     -518.93133      32394.497      3.2744157      5.429614     
    305000   620.71851     -9217.5629     -1981.8366      32395.204      3.2992001      5.4520953    
    306000   625.81613     -9223.6513     -1516.6265      32364.795      3.2145962      5.3635112    
    307000   618.89278     -9225.5771     -1566.7858      32359.91       3.2762929      5.4439559    
    308000   636.50901     -9220.5091     -237.48957      32297.824      3.2699619      5.4422872    
    309000   617.39911     -9222.9743     -261.93668      32328.123      3.2758096      5.4914779    
    310000   627.21959     -9221.6975     -727.21203      32274.098      3.2655202      5.5089989    
    311000   637.86678     -9226.6198     -1571.5148      32365.324      3.2826227      5.5400574    
    312000   646.47147     -9227.4077      534.83371      32334.426      3.32381        5.4953831    
    313000   596.45982     -9224.942       887.89218      32303.892      3.2627731      5.5170832    
    314000   650.86398     -9227.6728      4738.7682      32265.248      3.3075373      5.6054901    
    315000   596.1825      -9226.4028      1702.3401      32290.699      3.2540574      5.5010011    
    316000   635.05846     -9221.4599     -1761.1603      32395.344      3.2658753      5.5455339    
    317000   603.84931     -9224.384       2120.6706      32282.135      3.2758677      5.5506637    
    318000   627.63616     -9228.3218      122.78726      32335.414      3.2845345      5.5727368    
    319000   630.11798     -9230.3204      2324.5055      32307.423      3.2384759      5.5690843    
    320000   628.23298     -9227.3088      154.03503      32350.731      3.2893669      5.5244209    
    321000   623.64964     -9230.8834      2067.4913      32326.622      3.279783       5.5679492    
    322000   641.56845     -9219.797       2673.9019      32294.025      3.3098352      5.636548     
    323000   644.73545     -9234.6155      1507.6501      32270.881      3.2781837      5.5102435    
    324000   629.98852     -9227.2648      1094.4798      32297.147      3.3037282      5.6127046    
    325000   610.53959     -9230.363       639.55742      32330.929      3.317208       5.5502522    
    326000   629.47299     -9226.8677      1149.3889      32298.516      3.2897467      5.5816814    
    327000   640.4329      -9234.4482      728.6292       32255.293      3.3015707      5.5786173    
    328000   627.6036      -9232.576      -322.35102      32338.197      3.3470016      5.5929013    
    329000   626.76919     -9226.1686      2859.9307      32275.419      3.3067331      5.5225333    
    330000   618.20814     -9232.0781     -4415.2398      32355          3.2896873      5.5597816    
    331000   639.1339      -9236.3785     -745.42965      32294.347      3.3489615      5.5817075    
    332000   613.43841     -9235.744      -2077.7972      32378.492      3.3660563      5.6239237    
    333000   630.26142     -9234.9981      4538.3224      32210.437      3.3455797      5.5939228    
    334000   613.59813     -9237.9781      3209.8537      32189.337      3.2981541      5.5575347    
    335000   625.9866      -9231.4754     -3415.0429      32330.568      3.3152271      5.5625599    
    336000   618.81888     -9234.5609      254.52844      32251.662      3.2816294      5.6144888    
    337000   625.43647     -9237.4702      9.2763039      32248.347      3.2677356      5.5477065    
    338000   617.17538     -9237.5783     -1172.4709      32286.97       3.3611704      5.6909977    
    339000   634.07131     -9235.4626     -4621.1321      32337.84       3.4079219      5.6162061    
    340000   627.54822     -9238.3586     -1506.0362      32317.4        3.3250807      5.57135      
    341000   625.50524     -9229.5655     -4288.9569      32390.604      3.367446       5.6881172    
    342000   642.08995     -9242.8528     -3484.427       32354.12       3.3407532      5.5930276    
    343000   624.55869     -9241.8294      4315.4147      32206.968      3.2737318      5.5953094    
    344000   637.52723     -9240.4153     -2119.3731      32315.756      3.2959253      5.60919      
    345000   631.19126     -9236.0373     -472.40703      32291.721      3.3857777      5.6906609    
    346000   626.35547     -9233.6365      46.88719       32254.867      3.3495887      5.6540355    
    347000   610.70292     -9237.2811     -3062.7853      32368.592      3.3545353      5.6459118    
    348000   631.14824     -9240.9047     -2112.4034      32267.335      3.364241       5.7211588    
    349000   619.01216     -9237.7386     -2531.8608      32305.702      3.3367295      5.675953     
    350000   613.83184     -9236.3989     -4210.7731      32333.571      3.3744945      5.6780844    
    351000   644.47423     -9238.9647     -862.50815      32317.203      3.3876255      5.7260536    
    352000   619.01018     -9240.6294      2011.0925      32258.428      3.3861071      5.6797927    
    353000   648.41267     -9241.0842      3115.5927      32246.435      3.4666903      5.768935     
    354000   626.90011     -9243.9502      259.29626      32313.505      3.4413403      5.7124719    
    355000   625.9653      -9238.5657     -2294.3866      32285.926      3.3974901      5.7972888    
    356000   608.23717     -9243.4109     -1628.0324      32267.606      3.3774911      5.7623746    
    357000   640.45492     -9245.3704      958.54909      32242.593      3.4423658      5.781719     
    358000   613.86437     -9240.1026      211.92137      32239.168      3.3647321      5.8383145    
    359000   614.89503     -9244.4446     -2208.7031      32279.137      3.4353886      5.8528906    
    360000   623.5347      -9245.086      -4353.7455      32342.866      3.4240119      5.8650207    
    361000   652.63056     -9242.3669     -1469.8261      32266.605      3.4474785      5.8585789    
    362000   639.85933     -9244.7893      128.06686      32242.921      3.4001742      5.8567715    
    363000   622.72365     -9243.4686      3916.9736      32211.261      3.3791673      5.8298667    
    364000   624.72087     -9245.2168     -2097.8001      32263.489      3.4387084      5.7960913    
    365000   629.79552     -9246.8021     -757.02066      32245.577      3.4792667      5.8105229    
    366000   619.25319     -9247.1556     -881.97025      32323.676      3.4601428      5.8717844    
    367000   637.31491     -9243.4371     -1586.2369      32292.179      3.5160037      5.808737     
    368000   613.32048     -9246.3712     -1479.2258      32230.73       3.4817779      5.8590441    
    369000   628.70695     -9243.9628     -1517.5128      32284.35       3.4613706      5.8516494    
    370000   627.88332     -9244.7151     -152.4383       32258.353      3.4857004      5.8267216    
    371000   603.44708     -9248.5261     -2627.6438      32290.076      3.4832407      5.9008019    
    372000   639.81492     -9249.9304     -608.85483      32265.796      3.5094802      5.9603005    
    373000   608.95908     -9253.5883     -1962.415       32279.667      3.5912522      6.041383     
    374000   631.88647     -9257.4084      3923.789       32118.282      3.5393455      6.043022     
    375000   644.05861     -9263.7237     -368.98815      32244.735      3.5748407      6.0202201    
    376000   626.22844     -9265.3442     -581.11496      32276.925      3.6371357      6.1402105    
    377000   626.13276     -9256.8121     -4902.6562      32304.188      3.5978894      6.0645018    
    378000   606.67735     -9261.2696     -3402.0478      32260.017      3.6333952      6.0837158    
    379000   629.2292      -9261.327      -122.22143      32197.564      3.6638299      6.1011935    
    380000   594.67588     -9268.4296      2535.2826      32140.938      3.6198804      6.1318708    
    381000   620.21658     -9263.7133     -1162.2724      32208.131      3.6832647      6.1235827    
    382000   608.86488     -9265.2334     -3842.4631      32285.419      3.7096916      6.1127947    
    383000   624.11223     -9268.8078     -1699.6001      32216.927      3.6177439      6.0908951    
    384000   633.70097     -9265.61        1799.5098      32169.393      3.7482826      6.1745481    
    385000   626.32512     -9273.2935     -3670.9631      32192.205      3.7071395      6.1115759    
    386000   618.43775     -9270.4888      2466.746       32142.691      3.7132334      6.1592123    
    387000   634.72918     -9269.5291      121.31714      32152.445      3.7735444      6.193924     
    388000   619.21035     -9268.5643      4842.317       32093.431      3.7522764      6.2591561    
    389000   633.60139     -9270.4437     -2625.5195      32186.144      3.8173179      6.292346     
    390000   609.68977     -9274.4865      1291.0995      32122.64       3.7651751      6.2149771    
    391000   634.36751     -9277.1651      2510.0268      32069.445      3.8022542      6.2246298    
    392000   618.7065      -9283.4416      174.23951      32119.346      3.8533492      6.2681692    
    393000   632.41151     -9277.5611      2767.1268      32074.779      3.8441487      6.3144856    
    394000   613.15551     -9280.2954      2482.4583      32077.566      3.8271862      6.2443884    
    395000   616.75902     -9274.7836      5601.5149      32069.618      3.8300079      6.2368471    
    396000   645.21565     -9277.5006      48.904124      32087.293      3.835028       6.2777333    
    397000   623.34742     -9283.3504     -1357.0527      32121.646      3.8053566      6.3105134    
    398000   635.6264      -9280.3105      127.89644      32085.911      3.852243       6.3286952    
    399000   620.2655      -9284.2602     -2960.2544      32087.51       3.8292674      6.247803     
    400000   610.88197     -9273.3121     -439.84961      32078.928      3.7341432      6.3529724    
    401000   619.95352     -9284.898       4858.5452      32013.846      3.8077657      6.2452311    
    402000   623.30213     -9286.4781     -1587.9831      32122.693      3.8054719      6.3483949    
    403000   632.31542     -9284.3494     -1836.0069      32131.971      3.8030163      6.2893259    
    404000   606.15148     -9287.4715     -1885.5072      32094.491      3.8465525      6.357809     
    405000   627.96456     -9289.2721     -2140.1845      32084.378      3.8102073      6.3350745    
    406000   610.44852     -9288.8543      1288.3735      32042          3.7431233      6.2680896    
    407000   614.57206     -9288.6313      2304.5341      32032.935      3.7868843      6.2772073    
    408000   633.85693     -9292.089       161.49313      32099.091      3.7872692      6.2946048    
    409000   629.5439      -9292.3466     -1717.9801      32150.688      3.8068001      6.3661017    
    410000   633.35257     -9283.4275      1922.5833      32096.926      3.8022418      6.3966727    
    411000   636.39159     -9290.0828     -159.58867      32103.429      3.8276559      6.3440596    
    412000   631.73267     -9293.5762      1973.8317      32015.715      3.8116228      6.4415468    
    413000   626.65751     -9289.4389     -1457.5701      32118.184      3.8413695      6.3916146    
    414000   632.75658     -9291.3429     -308.6321       32089.179      3.7528212      6.29163      
    415000   619.33672     -9291.9457     -154.40631      32063.52       3.7666111      6.3738743    
    416000   614.30581     -9292.332      -3392.5149      32128.882      3.8090635      6.3618148    
    417000   631.1753      -9287.3729     -795.135        32110.734      3.7941084      6.4096234    
    418000   614.00421     -9294.106       4979.9849      32026.345      3.8010108      6.3800471    
    419000   626.12104     -9286.4922      1547.1299      32074.34       3.7912105      6.3524195    
    420000   616.41649     -9297.423       451.26738      32051.336      3.8226932      6.4427372    
    421000   633.20781     -9298.0552      3055.2621      32036.279      3.8255521      6.4425515    
    422000   616.21553     -9296.1867      4156.6236      31961.111      3.8189071      6.4129697    
    423000   623.55998     -9293.4777     -1657.044       32081.636      3.8640991      6.4687994    
    424000   609.5428      -9298.8293     -2030.4487      32140.718      3.8359138      6.5289035    
    425000   619.26687     -9293.0876      391.01257      32087.127      3.8429142      6.4197961    
    426000   615.82899     -9290.3096     -4212.8836      32159.428      3.8415668      6.4725411    
    427000   617.12647     -9302.1066     -2930.9307      32132.971      3.7955972      6.5335053    
    428000   623.69368     -9293.0109      931.52596      32016.561      3.7917929      6.4183185    
    429000   620.44711     -9295.7689     -3525.8463      32111.642      3.8653851      6.5165271    
    430000   611.42156     -9296.279      -3917.7998      32085.021      3.8654947      6.4920988    
    431000   626.29273     -9289.6459     -4154.508       32154.792      3.9230409      6.5229256    
    432000   608.25562     -9297.144       1908.9504      32019.773      3.8110234      6.4968162    
    433000   607.78607     -9303.9338     -3558.0251      32037.216      3.9009041      6.50386      
    434000   635.41532     -9300.4887      3688.3894      31984.285      3.8999685      6.5180422    
    435000   625.28721     -9300.7444     -1578.6883      32116.67       3.8949407      6.4913559    
    436000   616.99209     -9297.1522      2718.9455      32019.71       3.9016294      6.5236738    
    437000   630.47148     -9298.1519      272.30247      32054.173      3.8872093      6.5934989    
    438000   611.03349     -9300.6267      490.9869       32032.905      3.9080945      6.5408417    
    439000   632.48087     -9296.2978     -675.46412      32089.556      3.8831904      6.5716274    
    440000   615.07532     -9299.6454      2407.1518      32085.348      3.8597511      6.5590134    
    441000   632.90318     -9300.382       2343.3598      32035.498      3.8650873      6.507053     
    442000   625.32127     -9307.0805     -486.60205      32028.711      3.8861252      6.5240779    
    443000   650.50421     -9303.1951     -1490.7212      32115.304      3.8879847      6.6243158    
    444000   618.77578     -9301.8171     -1710.9918      32118.353      3.8993917      6.5190793    
    445000   641.54076     -9299.3035     -73.06968       32033.264      3.8995636      6.6479802    
    446000   624.10387     -9305.4245     -1401.9163      32049.01       3.8771881      6.580856     
    447000   621.15322     -9301.1413      340.66604      32073.894      3.8805521      6.5881232    
    448000   597.63204     -9299.8428     -1119.3142      32086.025      3.9022591      6.5466909    
    449000   627.08807     -9300.878      -664.62434      32064.192      3.8976698      6.6116998    
    450000   616.76671     -9306.8873      996.63307      32041.332      3.9066499      6.5079435    
    451000   623.70546     -9301.2485      3970.1334      31983.129      3.877944       6.5562478    
    452000   610.85218     -9297.2463      633.70837      32081.409      3.9839643      6.5824776    
    453000   612.97133     -9305.0621     -78.263513      32084.129      3.9850949      6.6157473    
    454000   636.80615     -9303.4579      614.20111      32081.246      3.9581342      6.6066765    
    455000   610.31467     -9300.9931     -1872.8694      32113.474      3.9095542      6.6738819    
    456000   621.22476     -9306.1777     -3834.0991      32093.049      4.0036653      6.7246225    
    457000   611.43164     -9309.9913     -403.48975      32027.016      3.954489       6.634947     
    458000   632.54183     -9309.0225     -2136.4673      32075.547      3.9400733      6.6807773    
    459000   620.38798     -9306.3217      5483.8569      31978.693      3.9387754      6.6845941    
    460000   620.31569     -9306.8627      19.6666        32017.525      3.9770955      6.6214574    
    461000   615.17653     -9308.0457      938.36363      31997.912      3.9377271      6.7035316    
    462000   619.94014     -9308.6451      423.51535      31977.083      3.9058445      6.6480408    
    463000   601.00507     -9305.1083     -2935.3117      32118.86       4.0440207      6.6209952    
    464000   641.47163     -9310.1604      2718.5102      31979.336      3.9421225      6.7307572    
    465000   612.97667     -9310.7158     -2224.1487      32055.613      3.9310335      6.6945744    
    466000   621.13875     -9318.5764      129.32815      32006.224      3.9838777      6.6959482    
    467000   625.73807     -9311.8464     -1394.6888      32047.689      3.9406318      6.7088242    
    468000   617.76507     -9311.562       2026.6967      31990.975      3.9628674      6.7164134    
    469000   641.86476     -9315.7835     -1896.5085      32066.668      3.9989096      6.7423023    
    470000   646.52279     -9311.0451      3311.8835      32002.269      4.0040119      6.7104225    
    471000   605.51753     -9309.7377     -447.6461       32083.063      4.0101674      6.7114004    
    472000   622.72299     -9310.7075      374.07329      32030.687      3.9705942      6.7034883    
    473000   617.93219     -9311.2025      1591.3609      32030.632      3.9998203      6.7222144    
    474000   630.00204     -9315.9692     -665.51677      32048.913      4.062173       6.7652399    
    475000   629.80158     -9310.1863     -3368.777       32090.82       4.0229567      6.7857173    
    476000   616.01724     -9312.2201     -2363.3647      32069.133      4.0589478      6.7720629    
    477000   610.68211     -9311.2647     -3451.2737      32071.6        4.0571885      6.7315547    
    478000   612.19672     -9308.3879     -2839.2209      32163.036      4.1042096      6.7896663    
    479000   624.76384     -9315.9329      2683.5081      32028.505      4.1362046      6.8416413    
    480000   627.28153     -9314.1697     -290.37805      32009.644      4.1307254      6.8215605    
    481000   635.63599     -9315.1568      3591.2983      31987.045      4.0521993      6.8867271    
    482000   644.16842     -9314.949       2031.4763      32040.995      4.1352003      6.8444642    
    483000   610.2175      -9322.2123     -2376.7452      32049.795      4.0500641      6.788821     
    484000   627.48138     -9316.6736      1070.6788      32046.058      4.0739622      6.8105544    
    485000   642.02284     -9318.5186      1182.761       32082.318      3.9783588      6.8025998    
    486000   605.97009     -9321.5994     -1876.5019      32080.324      4.0160011      6.8274399    
    487000   621.23884     -9317.3639     -1792.0792      32086.225      4.0260491      6.8379652    
    488000   605.5743      -9328.6774     -1225.4394      32045.109      4.0161661      6.7950115    
    489000   634.1177      -9318.5545      219.00251      32021.81       4.0206377      6.8043271    
    490000   611.39511     -9321.376       346.49709      31984.727      4.0435377      6.8312222    
    491000   627.14843     -9318.8158      3408.2936      31997.109      4.0569717      6.810524     
    492000   621.68628     -9322.692       5491.778       31950.991      4.0949424      6.8022773    
    493000   635.45011     -9319.9986     -3305.4504      32077.226      4.0715609      6.8988181    
    494000   618.29233     -9323.0632      598.25508      31990.031      4.0424173      6.8280822    
    495000   599.6089      -9318.6924     -3511.868       32121.342      4.076762       6.9014587    
    496000   606.15393     -9323.9395     -3279.015       32073.596      4.0518871      6.8867885    
    497000   626.37588     -9321.1913      681.38066      32040.91       4.0313043      6.8472905    
    498000   634.77217     -9321.3096      256.819        32068.418      4.0630017      6.868995     
    499000   621.98105     -9323.772       795.81645      32027.67       4.0508751      6.8954819    
    500000   624.69619     -9321.4555      994.92215      32004.873      4.0559294      6.8394559    
    501000   624.62992     -9325.8952      1602.5596      32003.497      4.0961822      6.9372516    
    502000   621.08186     -9321.208       1502.8324      32027.337      4.0902214      7.0030116    
    503000   611.60847     -9323.7812      3349.006       31963.541      4.105671       6.9640794    
    504000   616.81379     -9322.1001     -1017.7741      32044.802      4.1617316      6.9486331    
[...]
   2018000   612.76519     -9520.6828     -793.57915      31564.517      6.8480052      11.520499    
   2019000   633.24053     -9524.5555     -482.16308      31510.045      6.8265702      11.495017    
   2020000   626.37182     -9522.7498     -2529.773       31566.854      6.8663336      11.451547    
   2021000   607.52533     -9524.7573      733.21591      31492.497      6.8170223      11.503024    
   2022000   631.13969     -9524.0231     -675.05457      31517.835      6.8528285      11.557291    
   2023000   592.20532     -9525.545       1138.2451      31507.139      6.8218296      11.38027     
   2024000   619.50387     -9521.5018     -1622.3849      31578.755      6.826398       11.553669    
   2025000   628.26114     -9527.2681     -1809.3069      31534.348      6.8347203      11.491993    
   2026000   647.92339     -9524.453       3320.7327      31441.256      6.9185395      11.574464    
   2027000   607.5826      -9521.7558      215.35922      31471.757      6.8049737      11.472021    
   2028000   629.97289     -9528.6739     -1193.1195      31527.011      6.9038469      11.47885     
   2029000   637.73971     -9532.6809     -438.48791      31520.592      6.7986065      11.443181    
   2030000   641.42946     -9523.8156     -2678.7647      31533.166      6.8916136      11.522995    
   2031000   630.73471     -9527.3        -3299.9171      31583.205      6.8894068      11.579327    
   2032000   633.95614     -9524.9796      456.27605      31472.734      6.7689788      11.457856    
   2033000   633.1643      -9526.7511      2228.1107      31488.909      6.80386        11.459007    
   2034000   627.81139     -9527.7535      3846.4991      31459.331      6.89199        11.576775    
   2035000   620.80826     -9523.2914      1347.2292      31490.63       6.8757491      11.535653    
   2036000   610.52625     -9524.7648     -2989.5301      31560.41       6.8307591      11.503668    
   2037000   658.43178     -9527.9485     -366.6339       31542.106      6.8823663      11.524121    
   2038000   621.4779      -9529.41       -2319.1093      31546.386      6.8165707      11.573109    
   2039000   629.96777     -9527.8651      1023.9488      31465.946      6.91131        11.506865    
   2040000   639.68106     -9525.1208     -435.06213      31503.086      6.8285503      11.525383    
   2041000   603.36547     -9525.1743     -3926.1275      31569.654      6.7939932      11.488737    
   2042000   623.0348      -9519.5334     -2646.7856      31561.882      6.8798787      11.410702    
   2043000   626.17988     -9528.4141      1144.3397      31494.894      6.8590843      11.550608    
   2044000   600.02161     -9528.0107     -1205.1537      31472.476      6.8923963      11.559088    
   2045000   621.55609     -9527.2246     -5279.9368      31594.858      6.9283377      11.488234    
   2046000   641.95732     -9526.3245      123.65166      31496.442      6.7315719      11.417483    
   2047000   643.07618     -9526.5477      1475.4624      31489.185      6.8716981      11.497367    
   2048000   621.16071     -9529.4259     -2789.6084      31565.013      6.9030504      11.502118    
   2049000   623.98319     -9526.4473      691.31233      31505.757      6.9525059      11.533774    
   2050000   638.36744     -9524.4368      1840.233       31480.938      6.8711705      11.467019    
   2051000   602.70051     -9527.5741      2591.5369      31477.619      6.8551024      11.431694    
   2052000   605.37826     -9525.0427      403.72391      31510.43       6.8869261      11.516633    
   2053000   606.7422      -9527.3989     -2283.5693      31548.826      6.8463452      11.476906    
   2054000   618.94255     -9522.283      -409.97253      31519.113      6.9166805      11.482795    
   2055000   622.64676     -9524.8026      915.77658      31508.702      6.8669854      11.55703     
   2056000   612.18842     -9529.5883     -1195.4226      31510.914      6.8999868      11.545785    
   2057000   611.02663     -9522.6851     -1431.1939      31481.59       6.8888385      11.482543    
   2058000   619.27492     -9524.651      -2284.1601      31559.083      6.7701339      11.539839    
   2059000   607.63831     -9527.6281      2147.3526      31480.091      6.9689158      11.436486    
   2060000   634.18087     -9527.1114     -2774.5126      31534.859      6.8405858      11.544019    
   2061000   649.32322     -9525.0292     -2203.3555      31549.466      6.8687513      11.544533    
   2062000   608.15074     -9526.2008      3683.3157      31495.214      6.9188937      11.570997    
   2063000   622.09501     -9521.8424     -1211.0029      31583.606      6.9197969      11.524116    
   2064000   607.98849     -9527.0674     -784.99389      31539.142      6.853923       11.561096    
   2065000   638.6662      -9527.4894      2925.7012      31480.006      6.7829477      11.570205    
   2066000   605.32659     -9525.0322      5.386679       31571.259      6.8713524      11.491792    
   2067000   613.24908     -9523.0422      2217.9081      31510.075      6.8647614      11.535486    
   2068000   613.19015     -9520.496       721.18369      31516.993      6.8519558      11.458247    
   2069000   613.67075     -9524.3375     -1439.6529      31549.911      6.8293889      11.50212     
   2070000   625.41185     -9528.2172     -654.14098      31512.865      6.9063955      11.50294     
   2071000   634.53808     -9527.4512      869.4192       31505.657      6.822262       11.475603    
   2072000   608.67341     -9527.146      -1025.27        31542.81       6.818539       11.485491    
   2073000   619.03707     -9525.1444      2541.5076      31479.131      6.8339497      11.511       
   2074000   624.32894     -9524.5552     -614.76457      31537.517      6.8725113      11.494817    
   2075000   630.94555     -9528.0203      1190.3654      31489.604      6.8650137      11.50274     
   2076000   613.69468     -9528.7698      1900.4519      31471.243      6.8794546      11.458028    
   2077000   644.41551     -9523.848       273.61867      31536.043      6.8816269      11.58229     
   2078000   641.63915     -9526.5545     -3093.6552      31592.93       6.9280135      11.698869    
   2079000   607.38103     -9530.1317     -7001.6746      31604.005      6.8969664      11.631522    
   2080000   611.50993     -9524.0888     -741.1671       31534.814      6.8620375      11.529488    
   2081000   649.10629     -9523.6873     -448.76924      31558.862      6.8536208      11.564902    
   2082000   623.86781     -9526.3283     -693.55361      31546.294      6.8885384      11.468449    
   2083000   635.87119     -9524.6329      3281.1772      31501.289      6.839954       11.467258    
   2084000   613.57072     -9523.1273     -1284.2831      31568.84       6.9319315      11.53869     
   2085000   602.79511     -9526.2127      2245.7279      31474.884      6.8542713      11.575174    
   2086000   640.12608     -9529.7246     -2015.1956      31544.943      6.8962822      11.509201    
   2087000   622.9094      -9525.8896     -1135.7075      31499.115      6.8728163      11.610088    
   2088000   602.59325     -9524.7737     -2471.6742      31562.49       6.9553598      11.552219    
   2089000   631.59578     -9523.3426     -273.70731      31541.33       6.8903643      11.458212    
   2090000   612.00356     -9529.7416     -563.70195      31505.544      6.9057328      11.553425    
   2091000   616.24784     -9528.8808      2060.1683      31502.084      6.8660705      11.526861    
   2092000   609.69429     -9526.335       3485.1562      31481.201      6.9416899      11.499021    
   2093000   618.403       -9533.2616     -686.85689      31495.292      6.8705398      11.521999    
   2094000   616.85022     -9529.8708     -478.04744      31508.719      6.9471696      11.557469    
   2095000   625.61914     -9531.2262      1168.6005      31466.195      6.9307366      11.542802    
   2096000   612.71741     -9529.085       1679.2544      31517.856      6.8889148      11.58375     
   2097000   635.88028     -9527.5369     -4195.6089      31571.589      6.9424546      11.576104    
   2098000   612.59641     -9530.4545     -2424.6001      31594.466      7.0225791      11.564476    
   2099000   620.0102      -9528.7859     -2506.8857      31559.861      6.913517       11.64075     
   2100000   624.19073     -9534.5932      2376.9878      31458.607      6.9647919      11.587462    
   2101000   624.58783     -9530.2564      409.68591      31535.75       6.9745923      11.582951    
   2102000   617.69749     -9533.8828     -2025.5797      31553.958      6.9760159      11.636199    
   2103000   632.34819     -9531.7697      4757.3565      31423.963      6.982427       11.527184    
   2104000   593.53678     -9529.9799     -1141.615       31527.269      6.9363239      11.601139    
   2105000   630.27341     -9532.8899      550.57681      31481.727      6.965025       11.582917    
   2106000   630.20326     -9527.5591     -854.60618      31511.313      6.9873205      11.606746    
   2107000   629.27109     -9531.3301     -1690.6686      31510.616      6.8967833      11.691096    
   2108000   631.1056      -9536.4941      2530.0146      31421.171      6.9521691      11.482628    
   2109000   620.05396     -9528.9761     -3120.7224      31592.534      6.9671176      11.643674    
   2110000   618.15036     -9534.1826     -1209.9466      31494.947      6.987639       11.612871    
   2111000   598.63351     -9525.7656     -447.2427       31522.02       6.9698483      11.621381    
   2112000   621.71562     -9525.4468      3027.1192      31513.46       6.8992004      11.652006    
   2113000   612.31457     -9532.1323      540.56859      31536.207      6.9709885      11.612437    
   2114000   633.04851     -9530.1799     -79.74861       31491.763      6.9256391      11.657172    
   2115000   645.65267     -9535.0002      2589.3719      31461.081      7.0102126      11.573259    
   2116000   615.30052     -9535.9184     -1210.8046      31537.174      6.951011       11.622269    
   2117000   630.65885     -9534.8815     -2160.0783      31521.319      6.9907365      11.59352     
   2118000   611.32916     -9531.8952     -3015.6008      31558.639      6.9239793      11.636261    
   2119000   628.33535     -9535.1643      3837.3471      31436.168      6.9809397      11.668229    
   2120000   627.2811      -9535.2067     -377.11157      31465.857      7.0481306      11.681516    
   2121000   599.34065     -9533.0493      2519.2835      31436.93       7.000549       11.644838    
   2122000   604.16154     -9533.7754      2072.6762      31461.45       6.9520464      11.670626    
   2123000   639.42909     -9528.1866     -1861.3766      31513.376      7.0241998      11.7227      
   2124000   608.83291     -9532.361      -2364.3112      31524.232      7.0480065      11.731407    
   2125000   615.69233     -9539.19       -35.001397      31500.962      7.0517402      11.66057     
   2126000   626.97959     -9535.3898     -1697.6123      31495.69       6.9947893      11.700473    
   2127000   624.88323     -9536.073       5074.1806      31396.722      6.952581       11.56786     
   2128000   619.36327     -9537.6665      56.22566       31481.268      6.9600161      11.717762    
   2129000   614.48127     -9529.9403      3110.7947      31468.129      7.0153347      11.672594    
   2130000   608.4504      -9529.4156      1702.978       31504.211      7.012586       11.675852    
   2131000   642.24232     -9527.2961      1.2833319      31527.859      7.0575349      11.706646    
   2132000   621.71293     -9538.4815     -3169.3802      31537.286      6.9781601      11.742047    
   2133000   624.75125     -9533.7995     -4281.8728      31575.443      7.0769565      11.768003    
   2134000   614.58396     -9534.0908      1162.7149      31489.362      7.0469745      11.74001     
   2135000   605.83419     -9535.8153     -1105.5013      31523.34       7.0018527      11.752533    
   2136000   638.81433     -9533.0551      2149.9365      31486.435      6.8736958      11.726773    
   2137000   622.44931     -9537.2782     -4084.9553      31572.622      6.9548842      11.697807    
   2138000   617.08935     -9532.6183     -270.65372      31512.784      6.9612905      11.706374    
   2139000   624.5943      -9534.559      -1068.5609      31521.945      7.0175189      11.718184    
   2140000   624.81294     -9533.5371      2601.8468      31417.413      6.9956554      11.682164    
   2141000   624.61202     -9536.995      -373.12705      31456.236      7.0340573      11.724088    
   2142000   618.06031     -9531.5343     -1186.3105      31548.838      7.0451964      11.680971    
   2143000   601.68834     -9535.352      -22.866287      31502.575      7.0342293      11.694132    
   2144000   604.35463     -9528.7445      1217.0898      31507.555      7.0738688      11.702319    
   2145000   605.01377     -9535.0104     -2281.5795      31523.794      6.9879179      11.715291    
   2146000   630.1193      -9532.753      -1737.2785      31527.855      7.0385388      11.710942    
   2147000   615.82015     -9535.8998      966.76249      31465.753      6.9450657      11.743157    
   2148000   621.67985     -9532.7937      3152.1383      31423.556      6.9855028      11.696875    
   2149000   645.40228     -9541.1841     -80.258938      31480.483      7.0235432      11.686184    
   2150000   629.15494     -9535.3116      1410.3833      31435.721      6.9168439      11.620362    
   2151000   654.28972     -9537.134      -807.96283      31494.225      6.9405054      11.565756    
   2152000   611.06772     -9533.3356     -974.46259      31580.405      7.0583834      11.779412    
   2153000   631.39991     -9532.1621     -4834.0876      31622.198      6.9764871      11.758887    
   2154000   630.04172     -9539.2382      815.52214      31510.145      6.9592164      11.652769    
   2155000   624.68999     -9532.861       1779.1099      31464.921      6.979236       11.713568    
   2156000   615.27274     -9533.2113      499.49188      31503.968      7.0058746      11.659884    
   2157000   634.42766     -9530.8931     -3462.3972      31564.968      6.8863689      11.618126    
   2158000   636.63069     -9537.5733      897.79265      31464.628      6.9793242      11.753699    
   2159000   613.01665     -9536.1682      783.90103      31472.223      6.9939248      11.68903     
   2160000   632.01026     -9535.4237     -2804.8081      31518.608      6.99642        11.736798    
   2161000   599.36342     -9532.3182     -2364.1126      31545.412      6.9736233      11.654382    
   2162000   608.58399     -9529.907       160.2041       31548.856      6.9044395      11.664036    
   2163000   598.04524     -9526.435      -3779.7321      31621.813      7.0514666      11.716258    
   2164000   612.68298     -9531.1574     -437.76353      31551.016      7.0021182      11.691385    
   2165000   624.81499     -9537.7956     -3354.2574      31529.354      7.0306984      11.674727    
   2166000   607.62903     -9533.8827      2002.7707      31452.653      6.9109387      11.765682    
   2167000   617.75428     -9533.07        309.63352      31493.587      7.0039461      11.671713    
   2168000   623.94032     -9538.3389      2966.1952      31462.935      6.9992726      11.701459    
   2169000   616.67024     -9532.499      -1307.3612      31529.253      6.9714165      11.768796    
   2170000   612.5272      -9542.8932     -4236.5459      31504.152      6.9227441      11.737491    
   2171000   635.41457     -9537.3125     -311.45881      31518.215      7.0331593      11.744795    
   2172000   595.74382     -9538.0292     -1183.5171      31496.833      6.9832935      11.762656    
   2173000   606.62649     -9533.8478     -313.32367      31523.639      6.9815418      11.809928    
   2174000   615.46974     -9539.4005     -4525.0583      31612.947      6.9482491      11.80516     
   2175000   626.42496     -9535.553       1983.3913      31462.665      6.9933004      11.726728    
   2176000   634.77936     -9532.2415     -788.40112      31517.131      6.9701906      11.776688    
   2177000   611.77351     -9539.5008     -738.12363      31485.164      6.9331032      11.761822    
   2178000   622.28341     -9531.5047     -68.707604      31468.08       6.9850763      11.872638    
   2179000   612.52007     -9536.4325     -2219.3699      31529.268      6.9691538      11.867273    
   2180000   637.83435     -9536.7238      964.48283      31484.168      7.0793461      11.874039    
   2181000   629.24552     -9544.9695      4437.2543      31381.138      6.962189       11.698643    
   2182000   614.86763     -9537.1235     -1736.2971      31535.875      7.0229054      11.726618    
   2183000   594.78068     -9537.0794     -3318.1062      31524.863      6.9647783      11.80372     
   2184000   638.63924     -9539.2441     -359.41873      31425.121      7.084458       11.851286    
   2185000   615.99338     -9539.093      -186.59372      31489.51       7.0363367      11.8614      
   2186000   637.07313     -9532.13       -2775.2762      31563.699      7.0326022      11.793919    
   2187000   612.04439     -9537.5433      49.070365      31491.321      7.0295991      11.820813    
   2188000   644.56122     -9536.9204     -1036.876       31549.879      7.0139942      11.905929    
   2189000   620.94437     -9539.8709      1684.4036      31442.35       6.9809992      11.802868    
   2190000   645.1023      -9538.2913      3303.38        31413.094      7.0130696      11.783837    
   2191000   626.72302     -9535.1404      2208.2194      31391.25       7.0670073      11.858019    
   2192000   633.91427     -9536.8113     -1358.8086      31514.115      7.0661303      11.793004    
   2193000   611.89559     -9548.5627      1577.6214      31422.604      7.1257804      11.913946    
   2194000   633.23242     -9536.1107      353.29718      31473.869      7.0778046      11.792279    
   2195000   618.05938     -9543.1109     -981.20188      31497.836      7.1326853      11.869233    
   2196000   629.57561     -9537.3947     -982.90626      31471.208      7.1453565      11.915358    
   2197000   625.24017     -9538.1489      389.95765      31469.166      7.1594338      11.894023    
   2198000   620.89742     -9540.9208      1008.4372      31410.223      7.1467165      11.979137    
   2199000   649.67293     -9539.9135      1211.6192      31448.98       7.1417049      11.906107    
   2200000   631.86543     -9544.6691      1201.2119      31409.801      7.0569907      11.875766    
Loop time of 23919.5 on 16 procs for 2000000 steps with 1810 atoms

Performance: 7.224 ns/day, 3.322 hours/ns, 83.614 timesteps/s, 151.341 katom-step/s
100.0% CPU use with 4 MPI tasks x 4 OpenMP threads

MPI task timing breakdown:
Section |  min time  |  avg time  |  max time  |%varavg| %total
---------------------------------------------------------------
Pair    | 14064      | 18807      | 23749      |3444.3 | 78.62
Neigh   | 12.723     | 13.431     | 14.215     |  17.6 |  0.06
Comm    | 101.21     | 5043.6     | 9785.4     |6650.3 | 21.09
Output  | 0.41275    | 0.49933    | 0.74129    |  19.8 |  0.00
Modify  | 45.043     | 46.093     | 47.23      |  11.4 |  0.19
Other   |            | 9.275      |            |       |  0.04

Nlocal:          452.5 ave         461 max         439 min
Histogram: 1 0 0 0 0 0 0 2 0 1
Nghost:        1478.25 ave        1524 max        1435 min
Histogram: 1 1 0 0 0 0 0 0 1 1
Neighs:              0 ave           0 max           0 min
Histogram: 4 0 0 0 0 0 0 0 0 0
FullNghs:      22702.5 ave       24164 max       21078 min
Histogram: 1 0 1 0 0 0 0 0 1 1

Total # of neighbors = 90810
Ave neighs/atom = 50.171271
Neighbor list builds = 11556
Dangerous builds = 0

undump          1
unfix           3
Total wall time: 7:21:42
