LAMMPS (22 Jul 2025)
  using 4 OpenMP thread(s) per MPI task
units           metal
dimension       3
boundary        p p p
atom_style      atomic

timestep        0.001

read_data       Ti_aSi_PBC.data
Reading data file ...
  orthogonal box = (0 0 0) to (27.344798 27.344798 49.225544)
  1 by 2 by 2 MPI processor grid
  reading atoms ...
  1810 atoms
  read_data CPU = 0.009 seconds

group           si_atoms type 1
730 atoms in group si_atoms
group           ti_atoms type 2
1080 atoms in group ti_atoms

mass            1 28.0855  # Si
mass            2 47.867   # Ti

pair_style      nep
pair_coeff      * * nep89_20250409.txt Si Ti

neighbor        2.0 bin
neigh_modify    delay 0 every 1 check yes

thermo          100
thermo_style    custom step temp pe press vol
minimize        1.0e-6 1.0e-8 1000 10000
Neighbor list info ...
  update: every = 1 steps, delay = 0 steps, check = yes
  max neighbors/atom: 2000, page size: 100000
  master list distance cutoff = 8
  ghost atom cutoff = 8
  binsize = 4, bins = 7 7 13
  1 neighbor lists, perpetual/occasional/extra = 1 0 0
  (1) pair nep, perpetual
      attributes: full, newton on
      pair build: full/bin/atomonly
      stencil: full/bin/3d
      bin: standard
Per MPI rank memory allocation (min/avg/max) = 6.898 | 6.901 | 6.904 Mbytes
   Step          Temp          PotEng         Press          Volume    
         0   0             -12632.648     -90716.578      36807.809    
       100   0             -12788.405     -104268.57      36807.809    
       200   0             -12834.191     -87053.894      36807.809    
       300   0             -12884.154     -73253.541      36807.809    
       400   0             -12961.547     -52885.165      36807.809    
       500   0             -13026.589     -38395.853      36807.809    
       600   0             -13090.208     -24235.795      36807.809    
       700   0             -13139.658     -19827.262      36807.809    
       800   0             -13177.707     -18162.902      36807.809    
       900   0             -13210.136     -16542.584      36807.809    
      1000   0             -13231.67      -14050.704      36807.809    
Loop time of 62.1524 on 16 procs for 1000 steps with 1810 atoms

100.0% CPU use with 4 MPI tasks x 4 OpenMP threads

Minimization stats:
  Stopping criterion = max iterations
  Energy initial, next-to-last, final = 
     -12632.6479107861  -13231.3514678208  -13231.6699750266
  Force two-norm initial, final = 31.075518 2.0090871
  Force max component initial, final = 6.7447899 0.40204739
  Final line search alpha, max atom move = 0.12452085 0.05006328
  Iterations, force evaluations = 1000 1381

MPI task timing breakdown:
Section |  min time  |  avg time  |  max time  |%varavg| %total
---------------------------------------------------------------
Pair    | 38.171     | 50.33      | 61.755     | 151.5 | 80.98
Neigh   | 0.098701   | 0.13138    | 0.16205    |   8.1 |  0.21
Comm    | 0.20394    | 11.656     | 23.845     | 315.6 | 18.75
Output  | 0.00023323 | 0.00047568 | 0.0012006  |   0.0 |  0.00
Modify  | 0          | 0          | 0          |   0.0 |  0.00
Other   |            | 0.03416    |            |       |  0.05

Nlocal:          452.5 ave         566 max         320 min
Histogram: 1 1 0 0 0 0 0 0 0 2
Nghost:        2122.25 ave        2270 max        1948 min
Histogram: 1 1 0 0 0 0 0 0 0 2
Neighs:              0 ave           0 max           0 min
Histogram: 4 0 0 0 0 0 0 0 0 0
FullNghs:      55226.5 ave       75200 max       33401 min
Histogram: 1 1 0 0 0 0 0 0 0 2

Total # of neighbors = 220906
Ave neighs/atom = 122.04751
Neighbor list builds = 71
Dangerous builds = 0
reset_timestep  0

velocity        all create 300.0 12345 dist gaussian
fix             1 all npt temp 300.0 300.0 0.1 iso 0.0 0.0 1.0

run             30000
Per MPI rank memory allocation (min/avg/max) = 5.775 | 5.777 | 5.779 Mbytes
   Step          Temp          PotEng         Press          Volume    
         0   300           -13231.67      -12015.052      36807.809    
       100   167.16603     -13195.448      4764.9399      35986.657    
       200   211.19807     -13195.832     -715.13531      35980.662    
       300   253.28549     -13193.651     -2332.3206      35835.822    
       400   285.75406     -13190.143      1612.6166      35449.086    
       500   316.14102     -13188.906     -1834.2643      35265.66     
       600   331.95354     -13191.472      1238.025       34679.529    
       700   319.82323     -13197.04      -807.40532      34327.786    
       800   301.6304      -13201.89      -499.2414       34089.241    
       900   299.68822     -13208.513      1142.6286      33784.925    
      1000   302.13232     -13215.023     -957.01159      33569.484    
      1100   294.48108     -13218.016      27.456786      33314.21     
      1200   301.25597     -13222.68      -651.74654      33143.363    
      1300   302.80841     -13227.379     -310.27364      33016.982    
      1400   310.55997     -13235.042     -667.77296      32888.572    
      1500   302.47874     -13239.224      812.07025      32676.963    
      1600   302.66231     -13244.489     -198.08775      32631.684    
      1700   308.05032     -13250.799     -327.87876      32548.151    
      1800   305.43708     -13255.937      665.16695      32461.85     
      1900   302.65746     -13261.06      -73.296183      32384.806    
      2000   304.07115     -13266.182     -1780.1364      32363.81     
      2100   301.58902     -13268.918      711.30059      32265.616    
      2200   303.76789     -13271.853      807.14369      32212.385    
      2300   309.04181     -13277.064     -672.01027      32212.711    
      2400   304.14858     -13281.217      318.43294      32154.839    
      2500   297.41344     -13283.742     -303.63973      32145.085    
      2600   296.46111     -13284.852      260.4472       32082.711    
      2700   307.24993     -13286.305     -293.25313      32068.039    
      2800   309.33894     -13287.038     -1418.6781      32110.704    
      2900   309.7752      -13290.353      1656.0369      32045.54     
      3000   303.07103     -13294.151     -1555.6911      32119.948    
      3100   299.54115     -13296.494      1603.9549      32001.39     
      3200   292.32999     -13296.877      714.47383      32052.671    
      3300   302.40957     -13300.066     -1528.933       32159.702    
      3400   303.3483      -13302.48       2240.3184      31995.773    
      3500   301.31079     -13304.95      -1436.7558      32080.326    
      3600   304.21908     -13308.346      366.44973      31943.455    
      3700   307.77357     -13312.219      330.95412      31936.08     
      3800   298.67857     -13312.94      -60.084412      31912.013    
      3900   303.46926     -13315.275     -85.818752      31822.002    
      4000   302.3715      -13317.057      904.68829      31670.189    
      4100   295.83216     -13317.458     -1742.7836      31680.286    
      4200   308.49944     -13321.509     -490.90616      31643.263    
      4300   302.60673     -13323.585      1421.6813      31602.351    
      4400   297.46529     -13322.973     -1279.3194      31630.84     
      4500   298.61127     -13324.595      1655.8781      31535.975    
      4600   296.93506     -13326.825      609.32826      31558.18     
      4700   298.41406     -13328.721     -929.63301      31589.822    
      4800   312.86473     -13334.291      767.30538      31511.275    
      4900   303.72798     -13334.347     -1169.1856      31527.995    
      5000   302.76832     -13336.19       231.95817      31447.533    
      5100   299.68761     -13338.189      198.26419      31445.519    
      5200   302.91084     -13340.087      728.94059      31389.817    
      5300   300.96751     -13341.141     -798.90207      31406.352    
      5400   308.16134     -13346.277      546.79598      31343.488    
      5500   301.94009     -13346.151      254.13254      31299.156    
      5600   312.2556      -13350.932     -1726.5513      31306.598    
      5700   309.21423     -13353.374      1639.1083      31170.808    
      5800   307.46954     -13355.584     -1733.5479      31282.709    
      5900   305.12897     -13357.812      537.16776      31197.596    
      6000   301.89777     -13359.321      1348.2471      31182.401    
      6100   306.19908     -13362.431     -448.97618      31202.504    
      6200   294.39376     -13361.734     -468.59137      31228.283    
      6300   294.34324     -13362.364      908.95927      31199.17     
      6400   305.6293      -13365.951     -248.38812      31173.584    
      6500   296.45276     -13366.795     -750.50694      31187.428    
      6600   308.45667     -13371.769      1247.3246      31093.567    
      6700   302.99961     -13372.002     -1090.0451      31139.849    
      6800   285.3564      -13369.52       1193.7152      31027.171    
      6900   301.81764     -13373.065     -565.91527      31059.724    
      7000   302.25523     -13372.949      614.28125      30972.283    
      7100   298.78582     -13373.541     -137.50196      30950.429    
      7200   307.46347     -13378.813      25.824804      30926.233    
      7300   300.68771     -13379.149     -154.89162      30909.106    
      7400   294.60929     -13378.171     -280.62236      30914.464    
      7500   304.24298     -13379.713      213.32384      30881.641    
      7600   305.15222     -13380.542      216.12402      30910.354    
      7700   292.09284     -13380.826      1429.1007      30884.231    
      7800   295.04015     -13382.303     -942.81373      30898.576    
      7900   298.31386     -13383.242      2334.7408      30762.568    
      8000   297.16499     -13384.837     -1718.8185      30816.143    
      8100   295.10645     -13386.712      674.40418      30669.788    
      8200   303.06824     -13389.011     -1007.4085      30689.821    
      8300   307.68108     -13388.994     -594.52097      30663.725    
      8400   305.15333     -13387.179      1189.8534      30554.419    
      8500   304.33904     -13388.762     -679.72247      30502.318    
      8600   300.17873     -13390.887     -50.860626      30470.939    
      8700   297.55018     -13391.591      723.05162      30457.986    
      8800   306.21423     -13393.615     -394.39393      30494.368    
      8900   291.65914     -13391.906     -68.887132      30443.842    
      9000   301.22188     -13396.77       9.3663016      30432.857    
      9100   292.4302      -13396.187      1028.8132      30441.131    
      9200   299.50705     -13396.065     -1212.872       30496.268    
      9300   306.07967     -13394.961      647.27634      30473.283    
      9400   300.00938     -13395.238      188.79189      30459.501    
      9500   298.06629     -13396.756     -946.61843      30440.65     
      9600   299.6949      -13398.858      235.64586      30419.4      
      9700   304.27315     -13401.179     -5.2803193      30441.668    
      9800   300.96287     -13401.912      558.94863      30372.707    
      9900   301.07937     -13402.332     -1002.9182      30371.702    
     10000   299.90749     -13402.614     -35.533219      30309.32     
     10100   303.12595     -13405.948      1141.1358      30260.531    
     10200   296.85419     -13406.695     -140.40991      30301.296    
     10300   302.27993     -13408.025     -1340.6713      30306.761    
     10400   307.81994     -13409.955      543.29852      30212.811    
     10500   302.21418     -13410.443     -84.854104      30234.782    
     10600   293.83615     -13411.685     -1969.2315      30266.494    
     10700   295.65723     -13413.079      411.23355      30193.737    
     10800   309.06899     -13414.398     -498.11271      30205.505    
     10900   294.38765     -13410.588     -487.75193      30209.595    
     11000   308.90481     -13413.729      1199.7007      30113.438    
     11100   304.36235     -13414.051     -1232.8111      30180.278    
     11200   300.12657     -13416.421      2114.9936      30027.305    
     11300   292.07118     -13415.53      -2314.3652      30105.086    
     11400   302.52494     -13417.024      1160.1685      29964.373    
     11500   301.71165     -13415.68       559.26975      29928.508    
     11600   304.53732     -13418.239     -1530.8408      29975.751    
     11700   304.71994     -13422.242      2048.1413      29819.104    
     11800   306.75747     -13424.789     -1773.8578      29868.307    
     11900   290.77045     -13422.735      1301.5297      29745.397    
     12000   302.8358      -13425.538     -885.52712      29765.814    
     12100   302.32417     -13426.977      620.20723      29693.272    
     12200   298.83692     -13429.515      834.09147      29662.865    
     12300   300.94159     -13431.495     -821.05362      29620.193    
     12400   305.08908     -13433.225      648.18018      29564.029    
     12500   294.68023     -13433.287     -649.39067      29593.493    
     12600   295.19123     -13434.724     -205.04368      29535.839    
     12700   301.09421     -13435.995      1865.5901      29482.413    
     12800   294.86443     -13434.87      -1012.1007      29568.731    
     12900   299.95353     -13436.07       1021.2925      29499.214    
     13000   293.99191     -13434.368     -89.452063      29541.98     
     13100   302.41828     -13436.181      816.35512      29466.968    
     13200   294.59812     -13436.582     -683.89441      29533        
     13300   298.7908      -13439.637     -420.18439      29526.274    
     13400   296.89408     -13439.33       824.24548      29438.878    
     13500   306.51925     -13441.82      -1316.7996      29434.527    
     13600   292.65716     -13441.615      64.524799      29353.682    
     13700   291.91417     -13443.128     -86.12374       29346.721    
     13800   297.55425     -13444.757     -20.690761      29278.601    
     13900   301.22584     -13444.864      554.97416      29214.755    
     14000   306.03196     -13444.466      124.64355      29202.775    
     14100   307.66632     -13446.345      17.907643      29202.81     
     14200   305.93796     -13449.131      1504.8163      29147.924    
     14300   293.80683     -13448.005     -916.04497      29218.83     
     14400   296.07131     -13449.365      1932.1061      29132.505    
     14500   304.50037     -13453.101     -1705.2155      29189.77     
     14600   293.68986     -13453.78       2126.9403      29063.381    
     14700   286.04579     -13453.434      46.771803      29120.432    
     14800   300.68282     -13455.669     -981.67915      29118.785    
     14900   301.16365     -13454.462      1725.7829      29048.011    
     15000   298.20209     -13453.657     -127.04994      29041.107    
     15100   304.16136     -13456.627      1169.6308      28955.57     
     15200   297.14146     -13458.579      185.51785      29001.346    
     15300   295.44591     -13458.554     -1522.1703      29031.521    
     15400   305.07262     -13460.425      370.05851      28964.382    
     15500   299.92484     -13459.594      828.00484      28940.15     
     15600   297.87157     -13459.881     -1713.9449      28993.978    
     15700   292.78012     -13461.41       1318.4206      28931.142    
     15800   297.9027      -13464.166      364.30988      28899.906    
     15900   297.42501     -13464.083     -987.21072      28885.068    
     16000   306.10749     -13463.088      926.16454      28830.386    
     16100   306.76267     -13461.679     -75.954443      28842.079    
     16200   301.78665     -13463.246      325.77517      28794.012    
     16300   301.26271     -13466.211     -149.57667      28803.221    
     16400   301.14184     -13468.64       844.19249      28757.628    
     16500   297.12387     -13469.737     -256.48449      28750.877    
     16600   299.54747     -13470.93      -234.63751      28717.008    
     16700   295.9076      -13471.701      225.17319      28692.008    
     16800   288.89849     -13472.351      303.80532      28681.468    
     16900   289.41007     -13473.793     -2006.2078      28702.512    
     17000   295.28072     -13471.505      3323.7394      28568.082    
     17100   299.95731     -13471.23      -1955.8859      28688.17     
     17200   298.94956     -13470.801      1532.7258      28577.995    
     17300   299.79114     -13473.627      758.75308      28559.487    
     17400   299.75648     -13475.763     -2786.1822      28587.111    
     17500   297.21455     -13475.715      3076.561       28486.715    
     17600   304.46875     -13477.489     -1543.1281      28581.611    
     17700   299.12648     -13477.332      710.50362      28494.494    
     17800   296.83394     -13479.465      21.543066      28513.948    
     17900   293.2529      -13479.459     -861.67682      28522.408    
     18000   302.71276     -13480.781      411.54231      28460.667    
     18100   301.53287     -13476.983     -533.15355      28476.119    
     18200   313.23289     -13479.898      1435.7125      28394.737    
     18300   303.97197     -13480.177     -1413.9432      28440.244    
     18400   309.76074     -13483.35       777.2658       28354.752    
     18500   307.46513     -13484.199     -36.653059      28379.022    
     18600   300.04965     -13484.075     -124.81082      28367.949    
     18700   295.50058     -13484.549      514.4572       28339.619    
     18800   294.15547     -13485.687     -1577.474       28376.592    
     18900   300.47581     -13489.495      1393.6592      28301.014    
     19000   294.04318     -13488.755     -730.70408      28325.201    
     19100   310.30698     -13490.761     -844.67625      28280.589    
     19200   297.84796     -13488.92       1047.0127      28222.181    
     19300   297.6598      -13492.428      173.03333      28200.467    
     19400   302.02333     -13493.863      727.26376      28159.16     
     19500   297.23709     -13493.458     -1752.6397      28197.81     
     19600   303.53037     -13496.801      1220.5672      28107.537    
     19700   295.09628     -13498.163     -183.32246      28120.451    
     19800   296.25172     -13498.341     -1651.0469      28137.636    
     19900   303.43296     -13498.535      3895.3986      28029.738    
     20000   301.73386     -13497.251     -2308.7421      28141.821    
     20100   299.38723     -13497.381     -841.40348      28086.414    
     20200   305.25793     -13502.482      1295.6981      28036.043    
     20300   297.78433     -13502.553     -632.47112      28074.52     
     20400   288.17483     -13501.515      1642.2433      28028.3      
     20500   303.24204     -13504.297     -1417.7116      28073.067    
     20600   307.2974      -13502.21       110.30261      28039.819    
     20700   314.54741     -13504.247     -637.11936      28057.591    
     20800   308.35014     -13505.308     -592.38546      28045.245    
     20900   305.63526     -13506.489      621.2225       28009.431    
     21000   298.62298     -13506.652     -805.52127      28045.089    
     21100   295.54637     -13507.366      863.63808      28019.333    
     21200   300.5491      -13509.001      128.54624      28003.678    
     21300   304.46383     -13508.968     -1220.6118      28015.947    
     21400   305.2403      -13506.299      1006.2355      27988.603    
     21500   310.97496     -13507.348      88.434945      28006.698    
     21600   304.79785     -13508.628      395.81508      28000.934    
     21700   305.44037     -13510.534      665.49243      27981.317    
     21800   301.69643     -13509.927     -2724.9821      28033.822    
     21900   302.64613     -13510.477      693.29331      27977.081    
     22000   293.85378     -13510.214      614.79447      27979.977    
     22100   299.77232     -13514.239     -1987.7549      27996.531    
     22200   293.01443     -13513.434     -73.253408      27970.344    
     22300   304.39268     -13512.866      1886.2428      27924.596    
     22400   300.82091     -13511.345     -1402.4512      27996.917    
     22500   306.67728     -13513.229      968.9183       27938.948    
     22600   304.53375     -13514.731     -573.77107      27962.218    
     22700   300.26655     -13515.497     -862.63697      27973.209    
     22800   300.1902      -13517.022      2580.472       27918.12     
     22900   283.95302     -13516.603     -1685.9409      28025.529    
     23000   292.28529     -13516.49       654.30566      27972.105    
     23100   301.65573     -13516.433      816.81805      27957.355    
     23200   296.74778     -13514.913     -2964.0303      28046.838    
     23300   305.5794      -13517.971      2746.9318      27934.39     
     23400   298.15448     -13519.619     -1104.1421      28039.28     
     23500   296.94962     -13520.21      -1510.6156      28014.225    
     23600   298.47582     -13520.158      735.23644      27995.815    
     23700   308.94157     -13520.948      503.61377      28003.013    
     23800   307.18446     -13520.846     -1236.0752      28034.195    
     23900   300.95396     -13523.849      456.62352      27982.089    
     24000   302.14527     -13525.85       672.21599      27974.091    
     24100   291.22509     -13524.371     -1037.3561      28012.963    
     24200   299.35141     -13526.595     -334.85314      27980.87     
     24300   296.6265      -13526.612      1383.018       27967.278    
     24400   298.02685     -13528.521     -568.94023      27995.264    
     24500   296.58398     -13529.785     -1471.7839      27989.285    
     24600   298.79502     -13529.725      739.57925      27944.174    
     24700   302.55543     -13529.032     -345.3213       27969.279    
     24800   302.47008     -13528.566     -78.984643      27987.385    
     24900   311.07258     -13533.295      866.39611      27954.199    
     25000   296.47144     -13533.041     -873.31371      27981.257    
     25100   291.90477     -13532.9        490.86477      27975.959    
     25200   294.44161     -13533.217      466.35184      27978.965    
     25300   309.87289     -13535.084     -905.73328      27995.871    
     25400   308.56166     -13535.066     -1341.0619      28004.734    
     25500   302.19174     -13537.345      1794.6432      27930.497    
     25600   295.31198     -13536.769     -1235.6148      27977.859    
     25700   296.10788     -13537.117     -85.041441      27958.418    
     25800   300.49155     -13538.34       1508.1752      27914.69     
     25900   301.99434     -13537.965     -1934.7705      27976.91     
     26000   297.92343     -13536.734      2546.7525      27882.949    
     26100   286.89447     -13535.621     -2257.2424      27987.229    
     26200   289.48875     -13538.047      647.02751      27909.819    
     26300   298.37012     -13541.691      466.89359      27940.57     
     26400   289.41393     -13541.01       254.87417      27932.636    
     26500   297.16645     -13541.149      55.833897      27931.665    
     26600   309.89291     -13541.227     -232.53324      27940.922    
     26700   300.50219     -13539.307      1117.381       27910.812    
     26800   297.16099     -13540.177     -1102.1017      27973.378    
     26900   301.49651     -13543.844      2222.2274      27871.224    
     27000   298.83745     -13544.613     -2235.9469      27985.691    
     27100   296.22767     -13543.193      781.54081      27915.457    
     27200   305.82183     -13544.503     -1336.8906      27973.475    
     27300   303.20968     -13543.426      200.15928      27948.018    
     27400   301.79699     -13544.937      564.83155      27927.71     
     27500   293.80082     -13546.33      -792.62982      27936.584    
     27600   289.40085     -13545.444      10.982239      27932.796    
     27700   300.37069     -13546.158      835.76438      27922.637    
     27800   308.29111     -13546.272      1262.9382      27907.858    
     27900   311.18296     -13547.498     -2116.3435      27953.028    
     28000   295.90891     -13545.467      699.05417      27884.432    
     28100   298.5236      -13546.293      494.95212      27919.973    
     28200   299.14749     -13548.208      23.627949      27912.492    
     28300   299.50697     -13550.571     -121.91011      27907.829    
     28400   300.00569     -13551.459     -1726.2567      27927.604    
     28500   297.96732     -13550.755      1811.1524      27868.921    
     28600   301.45578     -13550.714      799.84396      27914.767    
     28700   308.27013     -13550.272     -1026.9882      27953.843    
     28800   305.28428     -13547.68       984.41465      27919.914    
     28900   305.1854      -13551.974     -766.04354      27940.417    
     29000   295.40995     -13551.662     -101.67142      27924.037    
     29100   294.13769     -13551.561     -537.10592      27926.862    
     29200   306.70093     -13553.088      481.68283      27912.816    
     29300   304.52857     -13551.537      727.45338      27905.463    
     29400   303.6044      -13552.081     -1783.3624      27969.58     
     29500   296.41054     -13553.295      2760.8516      27863.722    
     29600   299.31188     -13555.235     -1086.5294      27952.584    
     29700   300.54954     -13555.998     -714.74638      27939.413    
     29800   295.92826     -13553.765      882.21101      27920.534    
     29900   300.07279     -13551.781     -153.47935      27942.815    
     30000   302.70144     -13552.276     -456.55334      27953.951    
Loop time of 1408.7 on 16 procs for 30000 steps with 1810 atoms

Performance: 1.840 ns/day, 13.044 hours/ns, 21.296 timesteps/s, 38.546 katom-step/s
100.0% CPU use with 4 MPI tasks x 4 OpenMP threads

MPI task timing breakdown:
Section |  min time  |  avg time  |  max time  |%varavg| %total
---------------------------------------------------------------
Pair    | 1282.4     | 1303       | 1325.8     |  51.3 | 92.49
Neigh   | 0.46287    | 0.47886    | 0.49554    |   2.2 |  0.03
Comm    | 81.719     | 104.51     | 125.09     | 181.0 |  7.42
Output  | 0.0050996  | 0.012336   | 0.033928   |  11.2 |  0.00
Modify  | 0.61515    | 0.63903    | 0.64908    |   1.7 |  0.05
Other   |            | 0.1134     |            |       |  0.01

Nlocal:          452.5 ave         470 max         430 min
Histogram: 1 0 1 0 0 0 0 0 0 2
Nghost:        2456.75 ave        2462 max        2449 min
Histogram: 1 0 0 0 0 0 2 0 0 1
Neighs:              0 ave           0 max           0 min
Histogram: 4 0 0 0 0 0 0 0 0 0
FullNghs:        63322 ave       67541 max       58375 min
Histogram: 1 1 0 0 0 0 0 0 0 2

Total # of neighbors = 253288
Ave neighs/atom = 139.93812
Neighbor list builds = 239
Dangerous builds = 0

unfix           1
reset_timestep  0

compute         msd_si si_atoms msd
compute         msd_ti ti_atoms msd
compute         pe_atom all pe/atom
compute         ke_atom all ke/atom

thermo_style    custom step temp pe press vol c_msd_si[4] c_msd_ti[4]
thermo          1000

dump            1 all custom 10000 dump.anneal.lammpstrj id type x y z vx vy vz c_pe_atom c_ke_atom

fix             2 all npt temp 623.15 623.15 0.1 iso 0.0 0.0 1.0

run             2000000
Per MPI rank memory allocation (min/avg/max) = 7.026 | 7.035 | 7.045 Mbytes
   Step          Temp          PotEng         Press          Volume      c_msd_si[4]    c_msd_ti[4]  
         0   302.70144     -13552.276     -456.55334      27953.951      2.2693259e-32  1.6434602e-33
      1000   626.3039      -13462.107     -4328.0632      28379.897      0.55832912     0.22280507   
      2000   605.79469     -13470.607     -914.87156      28264.247      1.0625351      0.2955426    
      3000   632.70463     -13482.019     -863.97921      28242.102      1.8728193      0.4334009    
      4000   618.09147     -13498.466     -591.08113      28149.055      2.7594482      0.70300495   
      5000   623.99757     -13502.432     -1952.6333      28191.666      3.7881325      0.97869817   
      6000   634.95039     -13508.99       1351.0288      28176.189      4.5283104      0.927121     
      7000   611.43317     -13516.721     -2872.9742      28246.531      5.4478487      1.0043396    
      8000   616.34242     -13532.516     -2618.4098      28165.287      6.1173157      1.0807879    
      9000   636.57443     -13536.769     -373.99717      28146.478      6.7824825      1.1844065    
     10000   626.5932      -13542.005     -3573.0385      28167.203      7.5132639      1.2779742    
     11000   630.56874     -13539.767     -3165.5274      28194.624      7.9597009      1.290839     
     12000   625.97397     -13557.572      693.81373      28030.269      8.2404529      1.376306     
     13000   616.79143     -13554.982     -118.37184      28057.912      9.1574212      1.4725784    
     14000   608.99504     -13563.648     -1281.1285      28039.39       9.568916       1.5848897    
     15000   619.36306     -13560.169      86.425028      28080.706      10.073792      1.6248811    
     16000   615.75502     -13567.141      1466.7971      28005.799      10.488088      1.7651563    
     17000   617.71415     -13573.721      4233.8354      27901.794      10.600378      1.6997295    
     18000   596.77492     -13582.307      950.50318      27932.832      10.95899       1.7871521    
     19000   610.46812     -13584.637      696.56422      27930.642      11.549159      1.8820343    
     20000   633.29624     -13590.968     -894.55716      27990.722      11.897618      2.0542202    
     21000   630.7128      -13600.008     -3844.1827      28049.882      12.638881      2.1525005    
     22000   631.03664     -13602.622     -1521.1206      28005.325      12.886801      2.2619129    
     23000   617.77476     -13614.637     -1049.4299      27943.068      13.582113      2.3251921    
     24000   633.88295     -13622.045      1108.4619      27876.665      13.902116      2.4385768    
     25000   632.5633      -13622.414      399.37513      27891.601      14.373952      2.5562747    
     26000   627.89137     -13633.728     -383.72194      27917.781      14.844446      2.6153216    
     27000   636.79942     -13637.264     -1974.0094      27937.333      15.406459      2.6507009    
     28000   628.7254      -13637.262     -1230.1624      27877.19       15.403998      2.7361162    
     29000   627.728       -13639.662     -632.01792      27891.869      15.768024      2.7606944    
     30000   628.79191     -13642.467     -274.39322      27879.975      16.4655        2.7725388    
     31000   608.48987     -13648.923      1205.7685      27810.205      17.053752      2.8401402    
     32000   622.54249     -13655.166     -250.63714      27833.716      17.381649      2.8742996    
     33000   602.44901     -13650.777     -2394.7137      27881.587      17.81432       2.9570157    
     34000   621.44358     -13651.626     -3162.954       27891.774      17.872697      3.045564     
     35000   625.47008     -13663.942     -37.681343      27804.844      18.357505      3.0927145    
     36000   621.15932     -13659.973      1239.0026      27786.537      18.251766      3.0908037    
     37000   625.52873     -13667.725     -1681.8453      27823.869      18.213514      3.117182     
     38000   601.51819     -13667.565     -1167.5732      27791.32       18.729078      3.1309484    
     39000   633.60047     -13669.723      905.49137      27780.161      18.789251      3.1649005    
     40000   615.3428      -13669.045     -2476.8607      27852.888      18.701936      3.2364742    
     41000   642.14368     -13666.448     -1416.6517      27855.866      19.104946      3.247224     
     42000   605.08734     -13669.496      2509.9174      27762.372      19.38613       3.2716929    
     43000   619.23688     -13665.669     -2918.4702      27894.934      19.719357      3.4078723    
     44000   626.44319     -13676.546     -867.23764      27834.932      19.717252      3.3772714    
     45000   623.79841     -13676.889      270.26477      27804.044      20.092339      3.4760857    
     46000   614.8143      -13677.808     -2106.2035      27844.319      20.144389      3.5535545    
     47000   591.7955      -13680.344     -1882.2091      27839.886      20.355375      3.6188822    
     48000   617.01914     -13683.94      -4214.9781      27891.231      20.597455      3.63935      
     49000   592.82516     -13690.287     -1803.4692      27773.681      20.578394      3.5840051    
     50000   618.91669     -13687.295     -1649.6728      27807.934      20.959204      3.6917061    
     51000   626.79825     -13689.713     -1023.1757      27786.287      20.961758      3.7509336    
     52000   635.95213     -13691.765     -652.23595      27785.751      21.517889      3.8375863    
     53000   612.32747     -13689.6       -2849.2473      27826.113      21.400922      3.8260526    
     54000   629.95689     -13689.12       1137.8839      27767.889      21.656885      3.9291903    
     55000   611.66441     -13694.22       3551.3783      27708.022      22.112868      3.8519053    
     56000   626.2897      -13693.297     -2984.9982      27818.854      22.285096      3.9619042    
     57000   613.04664     -13698.18      -182.62562      27735.18       22.30264       3.9142925    
     58000   617.2642      -13700.501      523.16065      27719.826      22.409902      3.9804288    
     59000   634.09865     -13703.664      1856.9012      27716.773      22.814482      3.9785308    
     60000   607.33615     -13703.524      1482.2321      27703.812      22.935617      3.9709516    
     61000   622.76808     -13703.535     -2867.306       27815.614      23.363199      4.0863208    
     62000   617.54466     -13713.08       1562.1908      27683.84       23.465953      4.2046123    
     63000   638.8094      -13711.52      -1581.9173      27752.247      24.034371      4.3246153    
     64000   604.05567     -13715.502     -3322.4223      27746.059      24.366341      4.3825866    
     65000   631.56886     -13716.274     -2689.6624      27784.394      24.291287      4.3328826    
     66000   623.41907     -13722.837     -534.25777      27715.493      24.346063      4.3917102    
     67000   615.25664     -13718.699     -696.57705      27716.432      24.435508      4.3845285    
     68000   598.68501     -13717.69      -48.019233      27705.529      24.493339      4.482105     
     69000   621.17696     -13723.009      1461.9753      27681.062      24.924123      4.5478408    
     70000   608.26834     -13729.516      50.872012      27661.612      25.184783      4.5057279    
     71000   642.26729     -13728.892     -1391.7413      27720.427      25.313239      4.5863272    
     72000   635.4039      -13733.843     -2734.5172      27727.187      25.278504      4.548205     
     73000   608.45512     -13724.173      1281.8862      27667.662      25.285408      4.5675336    
     74000   634.31074     -13730.756      2150.0381      27624.485      25.25875       4.5253766    
     75000   630.9736      -13733.481      2826.7878      27601.176      25.705837      4.6208072    
     76000   637.10441     -13729.471     -3361.9358      27755.78       25.658006      4.7288249    
     77000   617.09874     -13728.299     -1257.7605      27708.095      25.583102      4.7841105    
     78000   613.98324     -13731.347      362.10923      27669.212      25.99945       4.8247367    
     79000   632.3881      -13730.71       1979.7948      27644.627      25.993155      4.8216301    
     80000   642.46661     -13742.149      1411.6095      27633.359      26.103504      4.8976104    
     81000   608.82416     -13735.679     -1123.3016      27684.853      26.46443       4.9309117    
     82000   618.881       -13738.746     -261.15835      27675.808      26.659881      5.0077881    
     83000   640.58704     -13734.26       1683.5704      27672.471      26.815112      5.0147111    
     84000   605.39647     -13741.528      1245.4868      27626.1        26.73055       5.0315079    
     85000   636.37165     -13738.996     -2813.0865      27749.778      27.122033      5.0985277    
     86000   630.42996     -13749.496      2263.902       27556.428      27.229212      5.0729037    
     87000   641.1898      -13744.063     -161.32137      27656.246      27.143753      5.1503853    
     88000   629.13148     -13749.675     -2865.0806      27705.883      27.633755      5.3059384    
     89000   607.06143     -13749.912      1125.4111      27616.384      27.706044      5.250656     
     90000   632.89517     -13748.694     -1504.0078      27661.598      27.883564      5.3239356    
     91000   627.9393      -13749.052      377.33081      27625.377      28.110493      5.2972163    
     92000   625.80729     -13746.574     -28.019561      27653.097      28.485671      5.441944     
     93000   615.59517     -13755.806     -51.862194      27628.142      28.801398      5.4259205    
     94000   610.58977     -13752.831      94.891929      27621.908      29.053433      5.6114679    
     95000   625.85143     -13764.064      1821.1311      27549.902      29.214427      5.5246279    
     96000   628.64503     -13762.207      3040.7196      27524.532      29.474357      5.5827136    
     97000   613.10282     -13759.373     -784.35822      27609.255      29.48476       5.5728665    
     98000   619.09091     -13771.265      69.304191      27592.741      29.929253      5.6187655    
     99000   642.38305     -13769.242      686.53234      27544.688      29.734259      5.6145701    
    100000   600.02439     -13772.271     -1985.981       27616.293      30.211009      5.757727     
    101000   621.61758     -13770.183      240.58988      27587.416      29.981874      5.7120395    
    102000   636.56817     -13775.254     -797.97589      27603.811      30.561595      5.7887328    
    103000   626.3294      -13776.324     -2795.8012      27633.423      30.690111      5.7390574    
    104000   603.9701      -13771.931     -1791.6104      27661.76       30.583931      5.8576489    
    105000   629.43606     -13777.021      2379.3106      27532.195      30.417642      5.7959047    
    106000   629.94655     -13780.278     -686.89847      27601.783      30.708335      5.8534671    
    107000   622.17617     -13780.428      1523.4061      27580.597      30.826359      5.8134843    
    108000   626.61048     -13778.688     -1223.9773      27620.313      31.008636      5.9829467    
    109000   617.0981      -13784.153     -2934.6706      27633.818      31.191931      5.9927354    
    110000   637.41442     -13777.252      5054.7895      27480.873      31.321787      6.0840267    
    111000   627.03541     -13785.949      1416.1184      27555.226      31.564161      6.123603     
    112000   622.73131     -13781.05       4386.6192      27515.782      31.716963      6.061408     
    113000   621.94959     -13786.199     -1656.4852      27605.661      31.50247       6.2125849    
    114000   610.88526     -13785.531     -2665.2283      27630.535      31.559144      6.3371589    
    115000   643.47706     -13783.344     -324.13553      27601.356      31.885741      6.232311     
    116000   611.42825     -13791.54      -3733.1166      27605.216      31.802747      6.2775617    
    117000   612.32593     -13791.74       50.052583      27543.002      31.807625      6.3242927    
    118000   634.16672     -13793.765     -3027.0809      27598.414      32.272536      6.371081     
    119000   631.87424     -13789.359     -1376.5958      27599.959      32.074903      6.3454587    
    120000   635.10247     -13793.832      6051.2373      27445.7        32.20619       6.3305794    
    121000   626.82144     -13799.795      1439.8037      27506.072      32.313913      6.3735592    
    122000   619.83319     -13795.788      803.7875       27524.871      32.211191      6.3925339    
    123000   621.64713     -13794.613     -270.59677      27578.31       32.17655       6.3674431    
    124000   637.02196     -13791.231     -4816.3391      27663.871      32.69171       6.4771814    
    125000   603.94902     -13788.965     -3622.3468      27657.655      32.4401        6.4251539    
    126000   629.12931     -13795.894      1053.8661      27549.88       32.594817      6.6111433    
    127000   610.41943     -13798.696     -438.03809      27567.239      32.482748      6.4185376    
    128000   644.87251     -13795.182      1305.4764      27540.88       32.664465      6.5586129    
    129000   625.71024     -13798.888     -3083.2328      27633.7        32.74677       6.5810891    
    130000   630.47351     -13797.947      5392.4745      27449.745      32.729851      6.4579226    
    131000   636.42048     -13797.982      2169.764       27500.652      33.014919      6.4229528    
    132000   628.62942     -13799.434      2478.9403      27515.052      32.800214      6.5824248    
    133000   623.06109     -13799.278      1569.7898      27531.518      32.904017      6.5210865    
    134000   608.16554     -13806.726     -831.71915      27571.014      33.343492      6.6691512    
    135000   624.06749     -13804.059     -800.75295      27593.32       33.123433      6.7212356    
    136000   626.10941     -13802.071     -3884.0506      27665.466      33.601701      6.807394     
    137000   626.76931     -13804.768     -524.54034      27583.822      33.721761      6.7597549    
    138000   614.32259     -13804.853      2485.5184      27523.418      33.553545      6.7494897    
    139000   622.2755      -13811.536     -2401.2126      27613.328      33.644219      6.9487396    
    140000   622.23247     -13808.435      810.3985       27546.207      33.694768      6.904732     
    141000   625.53621     -13807.461      1344.2586      27534.924      33.734378      6.9521005    
    142000   631.70104     -13813.57      -2821.874       27610.034      34.075189      7.0310359    
    143000   624.00108     -13805.044     -3002.3245      27645.933      34.386987      7.0618983    
    144000   605.61284     -13809.529      406.30062      27548.403      34.194746      7.0903747    
    145000   620.54426     -13815.677     -2257.4971      27607.391      34.168644      7.0886774    
    146000   642.46921     -13816.01      -529.69879      27586.4        34.275768      7.1904194    
    147000   612.73592     -13821.061     -1310.4272      27564.39       34.262128      7.2008215    
    148000   630.33947     -13814.082     -1644.998       27585.619      34.191407      7.2386225    
    149000   635.90873     -13821.432     -5099.2282      27655.643      34.677589      7.1648769    
    150000   614.22259     -13821.019     -866.79309      27556.195      34.696125      7.1225306    
    151000   638.78577     -13813.709      784.92679      27570.088      34.732842      7.1453483    
    152000   627.57796     -13820.769      1954.8048      27527.613      34.801886      7.1822054    
    153000   622.58271     -13821.36      -2140.2481      27581.746      34.681816      7.1690845    
    154000   625.62283     -13815.353     -194.63006      27549.798      35.03526       7.1660386    
    155000   624.54651     -13817.811     -1418.9661      27598.057      34.880987      7.2999637    
    156000   619.00542     -13819.756     -4736.504       27654.375      35.056274      7.2902799    
    157000   631.72992     -13817.548     -2277.0191      27600.002      35.163029      7.3042629    
    158000   632.76598     -13824.783     -1119.9083      27570.551      35.349263      7.3471399    
    159000   627.05002     -13815.739      4593.6362      27484.393      35.240569      7.3087813    
    160000   626.53271     -13821.35       422.349        27541.462      35.126911      7.4285951    
    161000   621.83414     -13824.076     -2393.7283      27608.168      35.481287      7.5336361    
    162000   634.28841     -13818.857      3380.6551      27486.127      35.442399      7.3896853    
    163000   615.16313     -13824.892      4.9296126      27541.156      35.25167       7.5466497    
    164000   637.7982      -13822.659     -1184.8391      27551.164      35.491072      7.4352765    
    165000   631.75159     -13829.496      347.09164      27529.831      35.429496      7.5108114    
    166000   623.89446     -13833.939      528.42412      27493.533      35.571214      7.5681409    
    167000   624.73988     -13835.695     -3340.1612      27578.157      35.813901      7.58655      
    168000   612.9986      -13828.006     -225.89735      27554.31       35.950429      7.7281323    
    169000   612.62004     -13834.296      1695.8691      27472.345      35.960179      7.6016805    
    170000   628.27308     -13830.697      257.84156      27525.909      36.042576      7.7007763    
    171000   617.22712     -13833.572     -1092.3056      27563.921      36.099307      7.7777834    
    172000   621.95733     -13834.904     -3600.3742      27596.798      36.325551      7.7686651    
    173000   624.95276     -13829.292     -54.119116      27536.701      36.120897      7.7176269    
    174000   606.21367     -13834.888     -1004.8829      27548.933      36.126317      7.8809236    
    175000   629.45232     -13837.964      79.864518      27516.189      36.356118      7.6597699    
    176000   638.82216     -13834.712     -125.91046      27539.264      36.357741      7.7787578    
    177000   608.10141     -13843.485     -5413.0906      27592.137      36.342513      7.8326513    
    178000   616.77484     -13833.133      3754.8039      27456.058      36.273793      7.7793288    
    179000   606.65        -13841.676     -829.20976      27522.854      36.263941      7.8481711    
    180000   620.46548     -13834.164     -397.62317      27537.307      36.390222      7.8610953    
    181000   629.13614     -13836.877     -4011.8639      27583.252      36.408239      7.9490177    
    182000   637.01113     -13840.957      1748.0705      27469.682      36.457623      7.8707411    
    183000   634.86618     -13835.203     -1648.6898      27532.041      36.554969      7.8991113    
    184000   628.12559     -13841.271      20.07606       27538.563      36.884195      7.982365     
    185000   624.6735      -13840.56      -17.906188      27496.493      36.702875      7.8720199    
    186000   612.60171     -13835.774     -1946.9406      27551.484      36.99664       7.9579238    
    187000   615.38294     -13843.739     -2758.0722      27540.28       36.756282      7.958439     
    188000   613.08252     -13842.291     -911.66438      27523.382      36.750512      8.0390114    
    189000   620.57471     -13843.642      1642.0022      27469.32       36.760532      7.8817142    
    190000   625.20977     -13836.666     -2023.2356      27549.944      36.943768      8.0612919    
    191000   631.60571     -13846.556      3211.2919      27418.54       36.760257      7.9536824    
    192000   629.06561     -13842.2       -1087.3608      27524.404      37.01115       8.0418626    
    193000   612.97601     -13843.981     -1536.4277      27531.374      36.722688      7.9785581    
    194000   647.77642     -13843.614      1474.3466      27476.386      36.914868      8.003131     
    195000   609.62949     -13843.849     -3119.4223      27560.966      36.792737      7.9881922    
    196000   618.97475     -13843.608      2246.3327      27500.185      36.972305      8.0856387    
    197000   627.41176     -13845.868      222.7825       27506.873      36.945792      8.083668     
    198000   615.94195     -13845.489      2084.5255      27437.031      36.895152      8.0109604    
    199000   622.3911      -13841.946     -3588.4337      27563.635      37.120557      8.0844689    
    200000   624.72808     -13845.76       4334.3516      27453.43       36.778632      7.9739909    
    201000   624.03316     -13844.611      880.35155      27483.303      36.891107      8.0398418    
    202000   620.73011     -13847.467     -1860.3055      27532.387      36.871388      8.1504479    
    203000   617.5643      -13842.65      -338.07879      27480.194      37.105218      8.0681255    
    204000   624.17674     -13851.533      507.36856      27477.799      37.013969      8.0693221    
    205000   623.1444      -13842.646     -435.82877      27526.497      36.90245       8.1403861    
    206000   631.54125     -13855.624     -393.19667      27488.745      37.281215      8.1923684    
    207000   618.70171     -13847.904     -2847.1558      27551.536      37.063429      8.1057996    
    208000   633.386       -13846.289     -2269.6835      27556.646      37.251632      8.3201913    
    209000   597.33945     -13853.614     -1080.9732      27511.101      37.285178      8.2372278    
    210000   601.29275     -13844.571     -5483.1964      27597.892      37.368473      8.2518169    
    211000   635.67768     -13852.406     -181.13749      27488.437      37.273059      8.2779615    
    212000   631.77861     -13851.546     -4260.7007      27579.342      37.505979      8.331124     
    213000   623.9069      -13857.746      807.36575      27465.3        37.47893       8.3661284    
    214000   644.83072     -13857.133     -161.92809      27493.113      37.612075      8.307969     
    215000   621.95582     -13854.889     -130.49708      27499.5        37.641982      8.3228321    
    216000   610.33497     -13853.553      2153.4721      27422.582      37.53973       8.2952061    
    217000   645.05743     -13849.641      546.05087      27468.945      37.72257       8.3776132    
    218000   652.5331      -13856.7        676.86418      27457.685      37.835018      8.2704891    
    219000   632.39485     -13858.024     -0.049104942    27472.266      37.718939      8.3718498    
    220000   631.40497     -13852.851     -681.91012      27525.797      37.761312      8.3903489    
    221000   612.88708     -13860.233      2678.3368      27431.702      37.628662      8.26434      
    222000   622.84171     -13853.389      456.64198      27479.558      37.501584      8.414659     
    223000   603.65642     -13858.422     -2910.0925      27526.802      37.868448      8.393472     
    224000   623.29008     -13855.899      2311.9801      27441.548      37.559187      8.3147109    
    225000   634.2842      -13856.388      179.11718      27473.996      37.715996      8.3664573    
    226000   636.97023     -13858.28      -1300.7249      27477.896      37.695496      8.3410388    
    227000   624.83844     -13858.342      1280.8834      27438.581      37.705732      8.2874781    
    228000   631.45496     -13860.289     -1024.8263      27497.543      37.713687      8.3232274    
    229000   618.80242     -13854.946     -347.20105      27502.502      37.983046      8.4844574    
    230000   594.50176     -13857.693     -4151           27565.593      37.939405      8.4989532    
    231000   628.46686     -13856.315      2282.1671      27438.029      37.997831      8.5073814    
    232000   643.83678     -13857.603      1770.6795      27458.416      38.050282      8.5982031    
    233000   622.85899     -13858.642      1166.4081      27449.157      38.039113      8.4949777    
    234000   624.96804     -13860.63      -748.47597      27484.519      38.173535      8.4670232    
    235000   608.73881     -13862.292     -3753.8646      27558.935      38.353243      8.5407302    
    236000   616.79731     -13862.873      124.50623      27468.741      38.422935      8.5698231    
    237000   619.95623     -13857.785      2507.0073      27445.154      38.632319      8.5362515    
    238000   618.96861     -13869.163     -416.28475      27480.111      38.82761       8.554024     
    239000   631.83891     -13864.199     -1802.5404      27536.461      38.968798      8.6444781    
    240000   632.26336     -13862.133      1946.9773      27468.582      39.149822      8.6267701    
    241000   621.26757     -13867.062      624.53116      27464.02       38.993068      8.7430759    
    242000   625.5608      -13865.303     -531.98959      27490.866      39.168677      8.6029338    
    243000   613.91567     -13866.133     -3193.9025      27560.07       39.309819      8.6964213    
    244000   636.03674     -13864.734      1137.1693      27487.716      39.414481      8.6365802    
    245000   621.51113     -13867.762      1413.5222      27448.018      39.487968      8.6417419    
    246000   629.98399     -13863.385      2182.8488      27421.121      39.366231      8.5912128    
    247000   634.7415      -13865.757     -1271.7113      27522.502      39.576892      8.8444899    
    248000   621.60441     -13866.06      -3778.4083      27546.73       39.574893      8.7737052    
    249000   633.70463     -13865.423     -3128.1186      27547.097      39.544329      8.7935709    
    250000   612.41595     -13868.279      553.10604      27470.478      39.483062      8.7075437    
    251000   607.44025     -13868.605      2780.9599      27422.93       39.460714      8.7486616    
    252000   614.90034     -13864.644     -580.0817       27498.896      39.585705      8.7613673    
    253000   625.32609     -13870.124     -3182.3816      27523.199      39.369618      8.7952894    
    254000   613.28271     -13870.482      915.96245      27436.942      39.306718      8.7770464    
    255000   627.56686     -13871.975     -591.99207      27478.747      39.358016      8.7595761    
    256000   628.98071     -13870.923      1565.4056      27418.488      39.469761      8.7850654    
    257000   630.04667     -13870.254      2162.0523      27458.628      39.567913      8.8061762    
    258000   629.57274     -13873.943     -3475.6706      27528.461      39.740163      8.7622767    
    259000   635.31878     -13868.611     -354.85731      27492.228      39.682178      8.8308372    
    260000   633.33308     -13874.69       958.09655      27426.161      39.54627       8.7409797    
    261000   604.38303     -13872.632     -686.57482      27458.481      39.452306      8.8434773    
    262000   627.19461     -13869.863     -2170.6766      27527.15       39.826137      8.7974217    
    263000   633.8582      -13876.343     -521.54555      27500.886      39.781308      8.8177302    
    264000   621.33272     -13868.857      261.40096      27474.753      39.483295      8.8407821    
    265000   609.035       -13874.044     -49.824735      27452.31       39.532102      8.7412536    
    266000   641.09392     -13874.966      97.299077      27469.089      39.782534      8.7179753    
    267000   620.27096     -13872.922      339.92989      27477.917      39.640086      8.7329575    
    268000   625.25237     -13879.089     -2286.0593      27502.061      39.465525      8.8155078    
    269000   634.66674     -13872.577      51.650402      27483.297      39.675947      8.84313      
    270000   630.65163     -13875.994      1860.6066      27439.769      39.803574      8.8187216    
    271000   622.63352     -13872.079     -2913.9656      27546.255      39.806401      8.8441508    
    272000   634.22237     -13872.686     -1038.7108      27479.601      39.644125      8.8009973    
    273000   607.46423     -13877.302     -875.48881      27471.205      39.715387      8.8100103    
    274000   638.94615     -13867.609      4247.5391      27405.357      39.779034      8.8447333    
    275000   614.54445     -13867.275      915.47905      27498.885      39.851999      8.9575961    
    276000   617.97058     -13873.039      897.30884      27487.401      39.795518      8.8060771    
    277000   638.31612     -13871.199      97.858815      27487.91       39.795196      8.7721369    
    278000   621.00774     -13877.588     -2630.7172      27519.895      39.874313      8.829821     
    279000   630.66254     -13873.054     -4196.9065      27563.635      40.032604      8.8840389    
    280000   615.4515      -13868.314      2390.0674      27454.274      39.74644       8.8936759    
    281000   621.98837     -13872.88       3322.8422      27418.611      39.755863      8.8650047    
    282000   594.52665     -13880.358     -854.3872       27464.366      39.80391       8.9164553    
    283000   628.63914     -13873.155      3499.2878      27402.799      39.827683      8.8655488    
    284000   623.52645     -13873.894      2468.6235      27436.829      40.012308      8.8827885    
    285000   608.27573     -13873.305     -41.132284      27471.246      39.965461      8.9716806    
    286000   607.81668     -13882.604      1842.7535      27390.145      40.089169      8.9258156    
    287000   620.81032     -13871.729     -196.14974      27455.846      40.376909      9.0092742    
    288000   621.49295     -13877.785     -4910.4467      27549.225      40.461795      9.1421965    
    289000   628.93858     -13872.191     -3024.9877      27555.643      40.369191      9.045286     
    290000   610.02334     -13875.691      702.16003      27440.322      40.459996      8.986091     
    291000   646.09093     -13876.415      1208.9667      27460.1        40.3136        9.035746     
    292000   612.18099     -13878.836     -799.93989      27489.531      40.412117      8.9445404    
    293000   633.86793     -13874.773     -932.8542       27490.406      40.45038       8.9120725    
    294000   629.13054     -13877.8       -304.45188      27462.236      40.170315      9.0175208    
    295000   611.93538     -13879.682      2370.8486      27413.94       40.24183       8.9751137    
    296000   627.64357     -13874.597      1457.2993      27447.385      40.41186       8.927875     
    297000   628.05524     -13877.841      288.45019      27461.877      40.497122      8.9582573    
    298000   618.15726     -13876.095      1846.6424      27457.985      40.531255      9.135992     
    299000   626.08502     -13878.874     -2290.9745      27514.516      40.676443      9.1961031    
    300000   637.71748     -13877.543     -2294.199       27537.357      40.634577      9.1753027    
    301000   622.26869     -13880.011      5013.5337      27361.491      40.62143       9.0536198    
    302000   647.16621     -13881.497      1409.8714      27430.246      40.782225      9.1435636    
    303000   613.31408     -13879.763      320.43457      27442.021      40.660824      9.1494111    
    304000   622.48337     -13880.504      946.7206       27451.31       40.719016      9.1162077    
    305000   626.58839     -13883.752      1378.4219      27402.958      40.915017      9.0824993    
    306000   636.93052     -13881.827     -69.809664      27448.02       40.928193      9.120629     
    307000   609.29421     -13884.587     -1325.7709      27457.273      41.285395      9.2136504    
    308000   615.75889     -13877.388      953.0898       27438.894      41.22975       9.2244361    
    309000   632.38088     -13881.211      2582.8888      27388.965      40.873722      9.1400444    
    310000   618.23322     -13885.648      4208.5412      27349.158      40.814493      9.2154344    
    311000   632.76993     -13881.615     -1022.6174      27447.406      41.017435      9.2661527    
    312000   616.79789     -13882.325     -2245.2008      27485.109      41.128183      9.3355332    
    313000   613.03232     -13879.67       2731.0971      27409.31       40.893798      9.2393089    
    314000   590.03349     -13881.305      1663.9851      27410.162      40.989429      9.1318328    
    315000   630.65709     -13884.18      -2369.43        27488.161      41.144293      9.222765     
    316000   628.21176     -13879.79       4359.773       27363.015      41.267227      9.1465826    
    317000   623.43982     -13880.55       44.395236      27456.024      41.083262      9.3744849    
    318000   626.81191     -13885.993      1077.4252      27418.945      41.258663      9.3338897    
    319000   612.57306     -13886.23      -2896.7404      27486.811      41.15754       9.3693295    
    320000   618.89089     -13883.905      415.53035      27438.456      41.363967      9.3037658    
    321000   619.12972     -13886.167      2877.7703      27389.896      41.256827      9.23429      
    322000   631.19609     -13886.33       1864.0611      27400.619      41.3089        9.3009666    
    323000   632.36806     -13882.085     -1679.5622      27466.76       41.201543      9.3158057    
    324000   625.95299     -13886.497      6407.8984      27319.25       41.017731      9.2249477    
    325000   600.78381     -13881.597     -961.66354      27462.203      41.298326      9.3129161    
    326000   613.76391     -13882.522      4168.7783      27369.865      41.327164      9.4159564    
    327000   626.76294     -13884.204      1809.5047      27423.663      41.013077      9.3826655    
    328000   607.01386     -13884.526     -1154.9195      27470.555      41.424975      9.4283145    
    329000   628.41709     -13887.362      2997.5659      27395.652      41.294961      9.3217995    
    330000   628.20632     -13891.252     -2281.7251      27478.513      41.267299      9.3700011    
    331000   630.01172     -13885.078      1633.3209      27431.811      41.30971       9.2279112    
    332000   620.44632     -13884.043      4648.4907      27351.966      41.328376      9.2529285    
    333000   624.02063     -13888.443      782.83489      27399.849      41.215991      9.3442235    
    334000   611.34283     -13887.402      1213.6304      27425.604      41.504956      9.3035003    
    335000   617.86636     -13887.21      -1072.4684      27471.27       41.587973      9.4578493    
    336000   620.90846     -13882.057      2091.5412      27411.354      41.463983      9.4069603    
    337000   623.51737     -13886.515     -2573.3509      27481.086      41.338032      9.4455859    
    338000   632.5697      -13884.293     -3287.9159      27506.433      41.487227      9.3791197    
    339000   635.79211     -13886.85      -149.76467      27458.34       41.401578      9.4345512    
    340000   621.64162     -13891.224      4730.5246      27335.424      41.283417      9.3156056    
    341000   636.92585     -13877.86       461.49513      27459.196      41.580601      9.3747575    
    342000   624.99244     -13885.693     -1126.4467      27468.736      41.445523      9.4075706    
    343000   634.72827     -13885.537      1590.9192      27402.553      41.364109      9.3420916    
    344000   631.60328     -13885.495     -1398.6336      27457.737      41.646653      9.2370468    
    345000   622.59359     -13884.032      838.56215      27454.934      41.405578      9.3485514    
    346000   611.68315     -13883.627      2239.2918      27398.71       41.227876      9.3353714    
    347000   631.36168     -13884.081     -1392.7399      27483.298      41.652182      9.3887755    
    348000   622.63387     -13886.162     -2936.2667      27528.699      41.668342      9.3874598    
    349000   631.80295     -13888.058     -3181.1787      27492.747      41.717383      9.4319243    
    350000   622.42355     -13880.625     -236.9326       27473.332      41.821917      9.4956       
    351000   615.57182     -13887.488      1036.1775      27440.098      41.639485      9.4022814    
    352000   604.81348     -13884.605     -3309.2396      27535.079      41.840056      9.5067367    
    353000   615.40562     -13886.945     -1581.1031      27470.565      41.66775       9.5145937    
    354000   616.47922     -13883.332     -2418.2424      27512.479      41.758865      9.569475     
    355000   633.68006     -13892.505     -1235.6403      27468.044      42.184573      9.533495     
    356000   645.56811     -13884.434      907.37997      27459.475      42.022429      9.4995408    
    357000   615.8986      -13890.821     -517.98972      27442.876      41.868305      9.5246134    
    358000   634.68989     -13893.74      -2547.1066      27507.303      41.849064      9.5227443    
    359000   621.63164     -13894.887      2930.44        27386.399      41.720216      9.4525808    
    360000   629.28175     -13893.09       2725.0145      27415.797      42.057581      9.6046724    
    361000   631.38232     -13899.231     -1360.4493      27472.83       41.925398      9.6659311    
    362000   635.60998     -13899.733      4168.2761      27375.843      42.024083      9.5364337    
    363000   622.28991     -13891.839      1850.6685      27447.503      42.111888      9.6281074    
    364000   606.45171     -13897.866     -1122.1424      27470.59       42.25507       9.6216685    
    365000   613.80672     -13900.157      478.78592      27429.197      42.227819      9.5362322    
    366000   637.54776     -13892.407     -2585.5893      27521.326      42.544914      9.6514626    
    367000   625.34654     -13900.611      826.73144      27437.736      42.250992      9.6320253    
    368000   623.48191     -13904.127      3186.1772      27368.384      42.195329      9.566683     
    369000   611.21815     -13898.177      1680.3149      27400.638      42.197426      9.6141331    
    370000   627.61019     -13892.241      612.79817      27433.412      41.948677      9.6772481    
    371000   633.95281     -13901.151     -657.05938      27470.939      42.209861      9.6575902    
    372000   616.67644     -13899.771      3552.8112      27373.982      42.574212      9.5319746    
    373000   620.70586     -13900.684     -1159.9347      27509.122      42.774367      9.6508348    
    374000   634.24271     -13900.943     -3983.3987      27559.087      42.945569      9.70669      
    375000   618.4046      -13907.461     -2486.2512      27536.077      42.541965      9.7536497    
    376000   619.12473     -13902.308     -3393.2745      27552.033      42.770179      9.8160859    
    377000   620.55458     -13909.398      2392.6283      27383.143      42.686449      9.6696808    
    378000   622.47401     -13904.555      1250.4485      27441.676      42.545315      9.6957157    
    379000   601.20195     -13908.149     -246.19554      27457.797      42.873744      9.6970247    
    380000   629.23572     -13905.985     -1639.3395      27484.269      42.958171      9.7705269    
    381000   629.6537      -13910.468      194.18399      27453.651      42.906923      9.7907541    
    382000   631.31994     -13910.171      2144.4664      27421.816      42.95965       9.7957708    
    383000   613.42549     -13912.885      1742.1976      27392.616      42.641841      9.7300042    
    384000   623.32916     -13905.86       3013.4963      27421.882      42.860092      9.7658103    
    385000   612.29633     -13906.182      1577.4824      27416.826      42.608514      9.8662352    
    386000   601.02124     -13908.378     -2230.8473      27514.763      43.357149      9.9361982    
    387000   641.32167     -13907.697      2025.885       27444.768      43.050691      9.8588339    
    388000   631.81748     -13913.372      0.85889281     27458.432      43.006553      9.9788615    
    389000   626.32554     -13906.295     -2272.6018      27515.306      43.282286      9.9451254    
    390000   605.68794     -13909.261      1431.214       27454.082      43.332297      9.945235     
    391000   628.40413     -13908.297      975.98009      27424.266      42.910474      9.8852106    
    392000   614.6669      -13911.853      529.48954      27436.31       42.94075       9.9614131    
    393000   634.10179     -13913.418      3083.9044      27382.998      43.095166      9.9860946    
    394000   629.25406     -13913.831     -2215.4022      27454.198      43.122796      9.9385467    
    395000   618.11175     -13909.602     -5874.9293      27580.77       43.504161      10.007069    
    396000   605.39572     -13911.62       669.07065      27424.529      43.253212      9.9442166    
    397000   656.78995     -13911.295     -2293.9391      27480.676      43.384271      9.95372      
    398000   620.02684     -13912.671     -911.47431      27439.876      43.388178      9.8935603    
    399000   610.72823     -13911.376      2685.1156      27383.037      43.240038      9.8952876    
    400000   633.2209      -13909.802     -2402.1718      27483.748      43.342756      9.9770212    
    401000   595.29023     -13914.776     -1833.7748      27462.723      43.319353      10.046711    
    402000   627.38994     -13912.564      1892.2808      27408.205      43.329707      9.9438798    
    403000   632.73873     -13913.293     -1636.1065      27492.139      43.443642      9.9522835    
    404000   623.73448     -13914.131      596.81671      27397.497      43.280683      10.002206    
    405000   618.45116     -13911.449      2466.9831      27389.959      43.335216      9.9466055    
    406000   613.15912     -13915.3        622.75621      27380.854      43.17788       9.9890513    
    407000   615.01774     -13910.917      1255.6439      27427.893      42.981207      9.9588173    
    408000   619.64573     -13916.553     -214.86898      27449.764      43.592841      9.8983689    
    409000   626.06886     -13911.351      3615.7397      27368.757      43.24295       9.9022976    
    410000   626.40201     -13909.843      3540.2698      27377.384      43.198784      9.9068853    
    411000   620.8746      -13915.494     -775.86806      27447.708      43.139408      10.017264    
    412000   647.12125     -13911.273     -151.65109      27448.527      43.328482      10.096677    
    413000   619.03713     -13910.368      1841.816       27415.587      43.181489      9.9793551    
    414000   618.80382     -13914.587     -1140.5542      27459.489      43.468779      9.9804675    
    415000   614.34448     -13912.715     -107.93504      27470.763      43.233758      10.095927    
    416000   623.6133      -13910.358     -3978.6401      27518.714      43.826231      10.055988    
    417000   621.57031     -13911.81      -383.24416      27455.173      43.70543       10.128369    
    418000   629.69014     -13919.496      583.86799      27433.624      43.801434      10.090128    
    419000   623.69997     -13917.201     -3985.8107      27520.326      43.954305      10.095614    
    420000   642.16198     -13915.554     -3981.2978      27519.591      44.170291      10.185716    
    421000   624.33753     -13919.85       1080.3527      27428.436      44.147641      10.18573     
    422000   630.57769     -13919.971     -313.19276      27453.869      43.979223      10.243563    
    423000   638.87288     -13918.483     -1457.2397      27462.263      44.042559      10.241829    
    424000   621.73481     -13917.035     -1957.992       27491.218      43.932303      10.283871    
    425000   636.6028      -13922.433     -328.1682       27445.235      44.030089      10.252056    
    426000   621.75991     -13917.879      36.212075      27432.848      44.083113      10.268855    
    427000   639.5622      -13926.354      5122.3256      27312.577      43.760025      10.171668    
    428000   632.59194     -13920.127      739.89295      27426.839      43.941161      10.323484    
    429000   635.06107     -13920.911     -2663.2347      27494.793      43.878777      10.234097    
    430000   608.9269      -13925.367     -192.97915      27435.24       43.91444       10.292694    
    431000   630.14281     -13922.106      3854.7762      27370.822      43.977015      10.248839    
    432000   630.97826     -13921.96       608.09379      27424.329      44.068681      10.290574    
    433000   604.13852     -13923.598     -480.49802      27440.186      44.258798      10.249163    
    434000   612.36028     -13922.685      1029.9344      27437.372      44.08656       10.426256    
    435000   622.90831     -13929.877      924.96422      27374.739      44.147434      10.169443    
    436000   625.96448     -13922.987      1615.0703      27418.118      44.262993      10.292423    
    437000   609.06403     -13917.895     -1325.4309      27462.447      44.122879      10.426198    
    438000   615.68369     -13924.66      -3590.685       27507.87       43.978469      10.416893    
    439000   623.89281     -13924.013      1025.8678      27418.866      44.31394       10.29139     
    440000   604.88426     -13926.84      -1454.2258      27422.196      44.254743      10.251904    
    441000   613.69123     -13921.153     -110.9569       27436.761      43.896263      10.37804     
    442000   602.6246      -13923.114     -141.87443      27410.395      44.080644      10.286872    
    443000   614.5408      -13931.088      1569.98        27372.793      44.061943      10.282391    
    444000   622.78316     -13925.196     -990.40297      27437.462      44.166683      10.434309    
    445000   634.94477     -13919.61       148.06787      27430.538      44.172138      10.336101    
    446000   623.42918     -13925.259     -4859.1998      27505.147      44.490253      10.391856    
    447000   626.25178     -13924.727     -2193.2959      27462.493      44.151391      10.32089     
    448000   618.95186     -13924.911     -882.51723      27441.449      44.318004      10.265828    
    449000   601.42232     -13926.091     -2719.6805      27446.419      44.57755       10.289012    
    450000   624.25492     -13929.36      -1554.6558      27430.079      44.706404      10.408255    
    451000   620.07915     -13929.806     -1250.1742      27431.192      44.756584      10.29732     
    452000   617.46581     -13928.192     -1869.377       27428.012      44.476791      10.374078    
    453000   624.2103      -13922.814      76.838456      27392.322      44.711291      10.31187     
    454000   620.31284     -13927.344      2175.1062      27394.227      44.68127       10.319965    
    455000   609.05007     -13926.779     -4879.468       27504.742      44.57444       10.438104    
    456000   646.56961     -13928.124     -342.49483      27408.184      45.171753      10.402004    
    457000   624.93711     -13931.73      -357.55809      27415.649      45.096531      10.365485    
    458000   622.28051     -13928.587     -628.46386      27431.926      45.05241       10.437829    
    459000   622.67443     -13938.315      1119.3763      27370.697      45.298974      10.39896     
    460000   631.03581     -13930.646      2913.1188      27346.147      45.116425      10.340688    
    461000   635.4237      -13931.724      691.91322      27402.917      45.156852      10.52043     
    462000   608.28971     -13928.896      96.762408      27412.358      45.203961      10.447324    
    463000   637.58758     -13930.642      2548.7001      27376.985      45.057794      10.490048    
    464000   615.00322     -13933.142     -1893.1388      27433.837      45.142863      10.613364    
    465000   601.51938     -13932.725     -1355.4756      27430.789      45.21608       10.425361    
    466000   618.41721     -13928.581     -4082.9714      27510.337      45.482636      10.579716    
    467000   631.55005     -13935.887      644.93057      27386.675      45.307794      10.525265    
    468000   625.76        -13934.017      323.28582      27393.745      45.271258      10.542519    
    469000   624.6105      -13928.157     -2996.2271      27503.303      45.546854      10.561006    
    470000   621.20123     -13937.35       412.74865      27413.09       45.148525      10.561301    
    471000   619.01514     -13936.303     -4266.4334      27495.372      45.317491      10.592821    
    472000   638.15273     -13940.307     -2632.6305      27458.349      45.237282      10.558346    
    473000   618.80004     -13937.703      2458.2396      27386.798      45.391204      10.509856    
    474000   634.00706     -13934.917     -1155.3541      27426.965      45.395444      10.453829    
    475000   617.02173     -13937.002     -777.4852       27430.953      45.508981      10.526862    
    476000   615.10824     -13936.158      2975.829       27373.948      45.251527      10.528761    
    477000   648.64204     -13936.255      4918.5644      27329.19       45.375752      10.561036    
    478000   607.00305     -13935.555     -2027.7626      27451.746      45.285523      10.47312     
    479000   639.77452     -13936.806      1954.4509      27405.28       45.387902      10.553743    
    480000   638.72242     -13941.153      2933.8328      27343.43       45.239132      10.433161    
    481000   623.49545     -13938.059     -2536.2035      27456.445      45.44112       10.603393    
    482000   608.97558     -13933.017      2309.9836      27404.802      45.289894      10.548705    
    483000   643.10433     -13934.95      -1484.091       27444.259      45.439789      10.62851     
    484000   625.5295      -13939.159     -2665.8563      27450.844      45.304888      10.513579    
    485000   631.01158     -13934.113      452.81544      27427.152      45.464845      10.64084     
    486000   614.54554     -13936.475     -651.08162      27438.033      45.55105       10.613127    
    487000   610.94011     -13943.055     -3456.1527      27480.383      45.558472      10.623289    
    488000   631.46411     -13937.23       2895.6948      27360.914      45.468952      10.468507    
    489000   601.95445     -13942.921      1304.4522      27374.076      45.507683      10.586959    
    490000   659.4459      -13942.853     -3894.5642      27483.439      45.581593      10.742345    
    491000   613.30815     -13940.071     -722.40564      27433.16       45.789551      10.644562    
    492000   650.87022     -13941.495     -61.011295      27407.661      45.588896      10.667237    
    493000   609.53507     -13943.049     -248.17395      27413.731      45.710792      10.59164     
    494000   634.9647      -13940.55      -2187.3765      27457.807      45.740016      10.670478    
    495000   614.31244     -13938.992      3781.648       27346.47       45.79476       10.570457    
    496000   611.75705     -13933.265      658.39355      27421.66       45.98689       10.693816    
    497000   624.84541     -13940.472     -1513.19        27450.882      45.539868      10.572028    
    498000   620.91004     -13939.302      1451.7048      27383.231      45.398633      10.645223    
    499000   624.87268     -13936.986      345.96778      27430.698      45.67373       10.647708    
    500000   624.75164     -13940.102      178.48443      27421.392      45.611451      10.590187    
    501000   620.38369     -13935.16      -741.09346      27433.961      45.421222      10.677849    
    502000   632.90945     -13944.095      3940.5311      27332.203      45.462727      10.540182    
    503000   640.43506     -13940.943      1824.4615      27384.201      45.602902      10.560401    
    504000   622.28409     -13939.968     -2097.1102      27459.658      45.961195      10.655097    
    505000   623.00822     -13947.653     -1426.6475      27437.969      45.703819      10.659242    
    506000   621.01392     -13940.381     -1980.5552      27466.605      45.803622      10.65524     
    507000   631.18973     -13939.131     -4383.8191      27509.382      45.89107       10.735447    
    508000   607.19407     -13936.839      2684.7854      27409.744      45.674172      10.557403    
    509000   594.91971     -13940.875      2135.9976      27392.037      45.689727      10.606304    
    510000   631.62131     -13942.769      2037.1051      27350.742      45.607256      10.612453    
    511000   607.22281     -13948.06       1964.8192      27360.906      45.6991        10.584005    
    512000   629.00301     -13942.599      1202.0181      27386.869      45.556964      10.718348    
    513000   607.69453     -13936.734     -2587.6245      27466.418      45.863197      10.691353    
[...]
   1818000   611.65743     -14049.23       1044.6941      27266.271      55.931781      14.26748     
   1819000   621.07063     -14048.86      -1949.5442      27348.179      55.99196       14.475649    
   1820000   632.36984     -14052.131     -129.76223      27334.833      55.993789      14.424558    
   1821000   619.3077      -14053.788      3313.5152      27250.418      55.968205      14.285215    
   1822000   627.80619     -14049.03      -3730.8523      27365.743      55.937248      14.427707    
   1823000   635.15353     -14054.413      3188.2018      27240.185      55.851969      14.328377    
   1824000   636.72275     -14046.237      2403.2307      27274.615      56.072524      14.318343    
   1825000   628.7236      -14049.745      3180.8764      27281.042      55.946587      14.394478    
   1826000   618.94172     -14050.327     -2207.5066      27349.549      56.334049      14.401656    
   1827000   619.76501     -14046.856     -2942.6946      27366.591      56.316587      14.352674    
   1828000   607.74875     -14050.827     -667.57835      27313.729      56.090228      14.47024     
   1829000   614.43062     -14050.632     -4305.5136      27392.891      56.246939      14.553989    
   1830000   624.27927     -14055.169      1824.9833      27255.162      56.20758       14.481365    
   1831000   611.84307     -14049.559      1037.4368      27288.775      56.381372      14.495539    
   1832000   624.96838     -14047.014     -5662.6131      27431.635      56.343519      14.510018    
   1833000   644.22385     -14052.279      2257.2873      27284.063      56.037324      14.461992    
   1834000   607.37014     -14052.283     -2909.3221      27345.699      56.330135      14.516729    
   1835000   622.29285     -14049.882      727.5459       27293.511      56.258188      14.527368    
   1836000   649.46791     -14051.535     -182.99379      27299.452      56.183359      14.503357    
   1837000   604.47691     -14051.34      -1274.5555      27315.818      56.380243      14.433881    
   1838000   626.9102      -14049.527      852.94155      27316.688      56.145797      14.583104    
   1839000   619.19799     -14050.446     -799.84724      27310.127      56.205493      14.511738    
   1840000   633.40471     -14052.918      5.1793543      27308.554      56.315956      14.537802    
   1841000   625.05284     -14057.117      3658.2795      27223.893      56.060927      14.455628    
   1842000   623.77472     -14049.449      952.18305      27277.003      56.480192      14.549693    
   1843000   614.88094     -14050.392     -385.75223      27312.918      56.259596      14.561745    
   1844000   615.99596     -14056.882     -1023.4349      27291.457      56.276668      14.53372     
   1845000   596.84368     -14049.87       997.21497      27307.839      56.31032       14.482862    
   1846000   619.26157     -14050.189     -366.91261      27319.519      56.249509      14.564398    
   1847000   638.08408     -14050.38      -3284.3551      27360.326      56.16166       14.632295    
   1848000   618.19623     -14054.861     -399.6127       27309.221      56.249214      14.630091    
   1849000   634.80331     -14050.845     -521.1353       27300.633      56.151403      14.586879    
   1850000   615.02283     -14051.973      374.0831       27295.148      56.096728      14.633162    
   1851000   624.57649     -14049.637     -1254.3816      27333.968      56.369458      14.580381    
   1852000   635.70876     -14047.593     -423.53927      27342.825      56.284618      14.499907    
   1853000   616.38573     -14050.988      620.11728      27296.775      56.038318      14.480282    
   1854000   618.48618     -14046.021      1729.9349      27278.499      56.30315       14.541912    
   1855000   625.38096     -14053.536      2173.6184      27236.071      56.062242      14.356987    
   1856000   634.26983     -14045.046     -767.81573      27328.818      56.155957      14.552393    
   1857000   621.65892     -14053.718      1302.0591      27278.611      56.203648      14.509906    
   1858000   645.67221     -14053.013      835.66779      27302.906      56.309496      14.463898    
   1859000   605.68313     -14050.047     -346.91619      27318.478      56.255725      14.570765    
   1860000   602.27024     -14045.832     -2551.6092      27375.485      56.232205      14.681688    
   1861000   641.8342      -14051.711      497.13096      27300.413      56.218453      14.463504    
   1862000   607.10518     -14050.062      1373.566       27286.867      56.421213      14.513526    
   1863000   611.08617     -14049.753      662.79864      27299.644      56.141213      14.520698    
   1864000   618.94673     -14049.477     -1259.8569      27349.329      56.44051       14.597961    
   1865000   618.99817     -14052.941     -286.49226      27310.604      56.334833      14.507097    
   1866000   629.39431     -14053.479      714.26479      27296.159      56.271311      14.529805    
   1867000   624.25695     -14053.905      2432.978       27261.967      56.163564      14.530587    
   1868000   618.28465     -14047.523     -2513.991       27357.445      56.393835      14.478458    
   1869000   630.74798     -14053.757     -2012.9368      27363.549      56.176169      14.666845    
   1870000   628.00778     -14049.137     -3780.4186      27383.818      56.534692      14.580473    
   1871000   618.57853     -14053.184      1493.4034      27278.247      56.332683      14.534256    
   1872000   606.35644     -14043.89      -761.53908      27354.109      56.406105      14.643419    
   1873000   620.35736     -14057.39      -1926.6297      27327.736      56.379155      14.555762    
   1874000   624.46322     -14047.827      805.36341      27301.234      56.312173      14.552634    
   1875000   618.43179     -14050.432      2365.9841      27270.321      56.160093      14.608571    
   1876000   626.87641     -14054.314     -3047.0419      27345.533      56.346379      14.539319    
   1877000   639.46059     -14054.007      3667.5561      27215.818      56.042353      14.4119      
   1878000   616.73921     -14050.354      675.58702      27281.564      56.334131      14.521406    
   1879000   624.14525     -14050.964      532.09931      27295.669      56.36166       14.480246    
   1880000   641.2674      -14048.635      1908.5039      27282.768      56.220967      14.551755    
   1881000   607.74936     -14049.345      153.13198      27300.411      56.466177      14.584337    
   1882000   637.84169     -14046.302      2618.072       27285.781      56.171429      14.533683    
   1883000   607.3511      -14048.792      521.83537      27320.708      56.275874      14.541602    
   1884000   623.85382     -14046.061     -2785.6656      27383.987      56.439036      14.65967     
   1885000   618.82198     -14052.665     -221.38288      27306.491      56.361537      14.511511    
   1886000   620.94103     -14053.735     -716.73718      27328.45       56.663405      14.518084    
   1887000   612.03178     -14045.939     -4776.0576      27450.236      56.502135      14.675946    
   1888000   599.37452     -14052.442      870.18533      27297.738      56.337403      14.621782    
   1889000   643.10695     -14053.65       1333.5759      27274.407      56.1899        14.569873    
   1890000   617.15897     -14051.412      190.18857      27308.897      56.364562      14.605341    
   1891000   622.42906     -14054.144     -426.10517      27296.929      56.258736      14.58307     
   1892000   630.46489     -14054.752     -1310.9721      27327.117      56.258298      14.640992    
   1893000   626.15094     -14053.649     -1651.0871      27341.334      56.610792      14.595618    
   1894000   637.46411     -14050.311      1545.1071      27281.853      56.122299      14.545974    
   1895000   627.22632     -14058.594      1426.8008      27288.987      56.31038       14.699035    
   1896000   628.54561     -14050.761      2314.1692      27263.921      56.116115      14.585597    
   1897000   614.70778     -14061.261     -1288.0062      27300.467      56.300772      14.644826    
   1898000   634.63873     -14051.476     -530.4201       27316.803      56.437501      14.443439    
   1899000   594.27717     -14053.799     -2100.8227      27324.489      56.213718      14.629113    
   1900000   618.93117     -14050.781      2350.0993      27286.217      56.200605      14.56747     
   1901000   610.03252     -14056.83      -681.9296       27349.358      56.334146      14.622678    
   1902000   624.52231     -14051.011     -993.94689      27351.873      56.342115      14.692668    
   1903000   629.49876     -14055.88       1863.7376      27249.861      56.338047      14.527768    
   1904000   629.84378     -14050.18      -1608.7775      27351.561      56.325051      14.648076    
   1905000   607.03337     -14055.826      2603.6934      27247.678      56.276196      14.574243    
   1906000   620.91752     -14049.81       1677.7996      27284.197      56.316751      14.658062    
   1907000   607.0849      -14054.445     -745.09537      27314.169      56.454215      14.610045    
   1908000   630.59258     -14051.579      3428.6742      27237.68       56.266582      14.657787    
   1909000   642.56763     -14055.638      1496.0853      27284.276      56.186616      14.614817    
   1910000   633.19179     -14057.564     -2840.7926      27341.518      56.464605      14.609117    
   1911000   645.0362      -14047.78       5121.1894      27231.968      56.289809      14.587971    
   1912000   598.2126      -14048.146     -340.40094      27315.22       56.184082      14.619562    
   1913000   603.98045     -14054.105     -797.49383      27307.368      56.32734       14.655577    
   1914000   627.20958     -14051.758     -203.10688      27300.753      56.426563      14.506932    
   1915000   604.58696     -14055.987      37.870908      27265.465      56.487859      14.626893    
   1916000   616.48133     -14049.427      2819.8599      27269.295      56.393303      14.589354    
   1917000   602.22305     -14044.256      920.8169       27334.554      56.410585      14.658982    
   1918000   621.73948     -14056.909     -2984.7618      27333.737      56.478796      14.673326    
   1919000   614.82498     -14051.34       4218.3741      27248.822      56.346984      14.640647    
   1920000   637.30235     -14051.047     -672.38422      27331.788      56.391031      14.639179    
   1921000   613.06616     -14053.219      536.85308      27310.29       56.557273      14.619868    
   1922000   615.44939     -14047.104     -1471.5577      27349.625      56.489461      14.658192    
   1923000   643.66392     -14051.947      1109.7923      27298.424      56.529418      14.707999    
   1924000   621.96961     -14052.913      1663.2052      27281.561      56.49563       14.655525    
   1925000   635.10007     -14049.578     -1430.1031      27353.594      56.504812      14.65881     
   1926000   630.10138     -14048.41      -1538.8747      27343.999      56.352479      14.736813    
   1927000   622.48082     -14054.327     -1041.5598      27320.594      56.592432      14.464112    
   1928000   646.06122     -14049.117      3412.7799      27265.203      56.141728      14.510122    
   1929000   607.42928     -14052.688      1335.7028      27273.133      56.11971       14.590489    
   1930000   633.46811     -14050.15      -4024.9016      27380.72       56.355303      14.594929    
   1931000   629.52278     -14055.296      4816.6659      27204.745      56.216979      14.586376    
   1932000   631.4166      -14056.838     -4295.9801      27387.176      56.619393      14.593701    
   1933000   642.20221     -14060.836      925.5899       27255.829      56.280693      14.534833    
   1934000   628.77782     -14051.753      2091.4193      27251.068      56.283464      14.595857    
   1935000   618.11432     -14057.473     -1088.806       27292.159      56.414173      14.595595    
   1936000   618.23504     -14047.76       46.772803      27316.354      56.414226      14.620508    
   1937000   614.181       -14050.773     -1545.787       27317.135      56.380362      14.70913     
   1938000   634.32817     -14055.616     -545.30738      27304.383      56.398021      14.608444    
   1939000   619.90224     -14056.583     -3172.9851      27339.364      56.375334      14.637901    
   1940000   637.26517     -14058.854     -1221.7003      27312.793      56.329848      14.570805    
   1941000   611.06208     -14051.095      309.79991      27297.857      56.311997      14.604848    
   1942000   626.61964     -14049.433      6406.231       27188.819      56.239982      14.454498    
   1943000   630.94433     -14056.786     -1450.3713      27317.791      56.407333      14.552331    
   1944000   657.29142     -14054.4       -1516.5493      27349.71       56.341345      14.665328    
   1945000   620.25504     -14055.541      1917.566       27267.554      56.201806      14.567448    
   1946000   620.60669     -14055.928      6.3225013      27278.144      56.374419      14.528412    
   1947000   625.19907     -14053.089     -2354.625       27336.153      56.371341      14.702883    
   1948000   614.17813     -14054.821      3880.6588      27233.703      56.220696      14.557172    
   1949000   611.67079     -14050.201     -2023.6456      27341.415      56.303144      14.605991    
   1950000   621.13759     -14058.638      1374.2168      27255.056      56.353844      14.566418    
   1951000   600.53823     -14054.431     -4257.0632      27376.565      56.365694      14.778482    
   1952000   607.4325      -14055.509     -45.076275      27279.412      56.358392      14.553815    
   1953000   621.35536     -14047.193     -277.7075       27308.116      56.48845       14.702445    
   1954000   623.90066     -14054.197     -1642.9117      27328.427      56.407848      14.618769    
   1955000   623.7324      -14058.098     -2680.9289      27362.983      56.534084      14.678365    
   1956000   607.26009     -14053.861      1099.0292      27292.965      56.136745      14.622194    
   1957000   609.30908     -14054.047      1205.5382      27283.804      56.350301      14.690607    
   1958000   625.03896     -14050.286     -830.07356      27321.58       56.396031      14.538599    
   1959000   613.20381     -14056.482     -319.92029      27306.118      56.330884      14.626742    
   1960000   644.68794     -14058.61       49.39681       27270.993      56.306359      14.666807    
   1961000   615.13937     -14053.914     -586.45064      27316.281      56.426684      14.610473    
   1962000   638.21112     -14054.122     -408.24043      27309.293      56.362002      14.63201     
   1963000   647.48907     -14051.233      240.54988      27298.082      56.463403      14.721715    
   1964000   628.68201     -14056.868     -1489.2584      27320.02       56.289758      14.568268    
   1965000   626.38924     -14052.677     -1079.3229      27309.989      56.277319      14.569678    
   1966000   598.32042     -14051.231      1506.7311      27286.217      56.209834      14.578854    
   1967000   619.7015      -14046.739     -1637.2274      27344.501      56.375807      14.658616    
   1968000   607.93778     -14054.947     -2309.7859      27322.062      56.486118      14.619092    
   1969000   643.92081     -14049.332      848.32151      27298.483      56.356224      14.656776    
   1970000   606.69246     -14050.932     -2044.45        27342.726      56.549555      14.555       
   1971000   612.00542     -14054.874     -516.25865      27306.02       56.407561      14.593073    
   1972000   614.62014     -14051.256     -293.82486      27304.617      56.644046      14.606117    
   1973000   621.01162     -14056.169      1356.9809      27271.89       56.437428      14.682369    
   1974000   623.21401     -14049.912     -1047.7498      27322.391      56.378475      14.550102    
   1975000   614.77338     -14053.724      1645.4842      27254.223      56.084652      14.638884    
   1976000   635.44437     -14055.51      -1237.0427      27307.942      56.576926      14.602107    
   1977000   636.66088     -14056.846      1107.6278      27285.719      56.345475      14.709653    
   1978000   601.60438     -14051.43      -1943.8576      27362.03       56.611952      14.707169    
   1979000   618.84681     -14053.563     -5224.9036      27384.234      56.500702      14.722701    
   1980000   629.27197     -14055.355      2312.9752      27262.869      56.39836       14.668036    
   1981000   620.09164     -14058.343      442.85442      27298.183      56.392796      14.624573    
   1982000   648.0416      -14056.009      2179.6862      27248.087      56.314339      14.638159    
   1983000   622.7651      -14055.514     -57.07172       27296.203      56.245652      14.585993    
   1984000   629.79193     -14055.632      747.07233      27276.73       56.365411      14.538088    
   1985000   639.13208     -14054.886      975.04646      27269.283      56.371463      14.583539    
   1986000   628.1947      -14053.207     -1081.2         27327.675      56.505247      14.701259    
   1987000   621.54054     -14050.802     -490.65898      27335.804      56.330267      14.60336     
   1988000   615.55148     -14058.536      828.41833      27261.109      56.697103      14.686103    
   1989000   633.13054     -14054.011      2525.6281      27257.222      56.397763      14.601637    
   1990000   625.56141     -14060.953      1791.5953      27239.127      56.254414      14.660473    
   1991000   632.47981     -14052.762     -3739.643       27393.047      56.576901      14.566046    
   1992000   609.89382     -14055.497     -689.74725      27324.369      56.284908      14.666781    
   1993000   650.24351     -14055.597      2528.6279      27260.017      56.36018       14.562706    
   1994000   617.50306     -14054.941     -3243.5707      27345.889      56.599242      14.722522    
   1995000   637.97053     -14048.335     -729.4547       27345.391      56.312584      14.694851    
   1996000   624.17135     -14053.489      16.201633      27308.18       56.52734       14.59724     
   1997000   602.08632     -14056.305     -769.10698      27296.754      56.543815      14.652015    
   1998000   615.86794     -14054.193      1172.9417      27295.884      56.371827      14.601417    
   1999000   616.00518     -14055.704      4509.0981      27199.192      56.444128      14.403868    
   2000000   600.6201      -14042.335     -2122.1973      27374.519      56.453888      14.579864    
Loop time of 99548.1 on 16 procs for 2000000 steps with 1810 atoms

Performance: 1.736 ns/day, 13.826 hours/ns, 20.091 timesteps/s, 36.364 katom-step/s
100.0% CPU use with 4 MPI tasks x 4 OpenMP threads

MPI task timing breakdown:
Section |  min time  |  avg time  |  max time  |%varavg| %total
---------------------------------------------------------------
Pair    | 83900      | 91292      | 98983      |2430.1 | 91.71
Neigh   | 38.113     | 40.344     | 42.702     |  35.0 |  0.04
Comm    | 475.7      | 8167.8     | 15561      |8125.3 |  8.20
Output  | 0.38162    | 0.44135    | 0.59909    |  13.7 |  0.00
Modify  | 39.325     | 40.449     | 41.287     |  13.2 |  0.04
Other   |            | 7.271      |            |       |  0.01

Nlocal:          452.5 ave         472 max         433 min
Histogram: 1 1 0 0 0 0 0 0 1 1
Nghost:        2491.25 ave        2515 max        2470 min
Histogram: 1 1 0 0 0 0 0 1 0 1
Neighs:              0 ave           0 max           0 min
Histogram: 4 0 0 0 0 0 0 0 0 0
FullNghs:      64722.5 ave       69443 max       59978 min
Histogram: 1 1 0 0 0 0 0 0 0 2

Total # of neighbors = 258890
Ave neighs/atom = 143.03315
Neighbor list builds = 19572
Dangerous builds = 0

undump          1
unfix           2
Total wall time: 28:03:40
