(written by ASE)

1810 atoms
2 atom types

0.0      27.344798000000001  xlo xhi
0.0      27.344798000000001  ylo yhi
0.0      67.825544188700007  zlo zhi

Atoms # atomic

     1   1      14.619408801000002      7.7857733529999988      18.105055953900006
     2   1      11.402307046899999            3.9367072772      18.842188146300003
     3   1           13.5996556596      25.626598421800004      13.098975332600004
     4   1      4.9384103464000004      10.185131544300001      11.501504032800002
     5   1      12.556684174000001     0.98735809429999999      21.059272769100005
     6   1      27.041348209999999      19.996542993400002      26.436958855500006
     7   1           12.0999519186      5.7394333090999998      14.986835283400003
     8   1      14.743190910400003      4.7471331055999988      19.938933898600002
     9   1      10.188688037199999      14.550315387200003      20.704621626200005
    10   1      16.149842468500005      15.383890981800002      14.127478761300004
    11   1      20.295401223699997      3.4413915276000004      24.300141360500007
    12   1      7.9029752453000004      23.804522668000004      27.598849554000001
    13   1      16.145911328799997           10.7072409846      28.525761978600006
    14   1      12.337114627899998      13.640636712299999      11.183759703700003
    15   1      17.579458136100005      6.2097541176000002      16.092680092400002
    16   1      21.439888289400002      15.745561503000001      12.209680219800003
    17   1      15.719793474900003     0.11389672219999999      23.005072384800002
    18   1      2.7554592231999995      4.6186955610999991      15.954405956200002
    19   1      7.9463144398999992      9.7569493474000009      25.473517896600008
    20   1      26.609592089600003      18.118919566900001      13.200334929100002
    21   1      6.3022457742000002      27.028787380300002      10.285897725300002
    22   1      4.2161093826999991      4.8952593021000004      19.233722516800004
    23   1      13.818913795500002      14.939629875600003      25.381906334300002
    24   1      17.931447989600002      1.8136304525000002      12.500181379800003
    25   1      2.6701688934000001      19.898964891600002      23.761715727200006
    26   1      21.650582761099997      13.938366805600001      10.725577038000004
    27   1      9.3523269787000007      4.1324065389999998      21.884861595100006
    28   1      2.8032496130000002      13.540609504700001      26.135624926100004
    29   1      24.251105760900003      27.124730207599999      16.031352315600003
    30   1      18.687926059600002      18.117564483400002      16.303836115800003
    31   1      23.993390877300005      13.673315750900002      18.657724566900004
    32   1      6.8032229919000002      21.458251448299997      15.393655552000004
    33   1      2.3447813908000001           25.3757604326      11.995840914500002
    34   1           10.2459185879      23.663474387400001      28.314691840000005
    35   1     0.32454344390000001      13.981719396900004      11.669105504900003
    36   1      3.6850750850999998      15.854138282700003      12.246625168900003
    37   1           13.4186705905      19.408878396299997      23.874910008600008
    38   1      5.5285245329999997      12.070911026399997      17.974716936300002
    39   1     0.77363633050000002      22.328700835400003      16.846999651000004
    40   1           12.1058166345      25.049806792800002           27.6944501509
    41   1      17.886827648900002           11.9524954673      13.913651276300001
    42   1      17.143774935000003           12.4760275801      20.930668662800002
    43   1      2.8387305571999999      17.347353905000002      27.409687970400004
    44   1      25.768190357499996      4.7349542467000001      23.346629723800007
    45   1      6.9055453225999992      24.485665727500002      17.380001051100002
    46   1      22.691728861200001      20.713873041800003      25.937932188100007
    47   1      4.5814839846000002      22.182995651500004      15.761003788800004
    48   1      13.638466184899999      17.549118930700001      17.448466529400005
    49   1      24.628906937999997      27.153783797800003      11.655320959600001
    50   1      18.838035093200002      26.431875799900002      15.690681770400003
    51   1      5.8343249833000002      4.7712745490999993      22.303210766800003
    52   1      23.712934699199998      18.887744368400003      24.818963615100007
    53   1      1.6945956969999998      12.852923518900001      24.101012146000009
    54   1      10.048144671799999       6.401071911199999      15.948324199300002
    55   1      7.5529269360999995      15.522296520100003      14.444470816000003
    56   1      12.385283379400001      23.767976235700004      20.588997573700006
    57   1      18.526518421900004      14.478778181100004      20.883314483600003
    58   1     0.20901151179999999      24.462716004200004      12.416893937700003
    59   1      9.0403914041999993           12.3550316244      15.767380051000004
    60   1      6.3826321357999998      7.6185744955999999      12.559092533900003
    61   1      12.176574864799999      10.524041567299999      11.625978564200004
    62   1      12.647540637000001             18.41949331      29.438905016000003
    63   1      19.768868001399998      21.437172860000004      29.950455996100008
    64   1           13.0508417083      15.790606236800002           15.8570749347
    65   1      20.219821698500002      11.008535199799999           29.3245398454
    66   1      26.393984633600002      4.5443341365999999      14.316056500000004
    67   1      17.128893146800003      19.541320679400005      19.758825287099999
    68   1           21.2663947273      1.8331552522000001      15.480945854200002
    69   1           12.7135110642      20.106841986700001      27.721726433699999
    70   1      4.1375033133999999      8.1791399770999984      12.396751478800002
    71   1      4.1024946161000004      12.394218899599998      21.205055261700004
    72   1      20.673127271300004      19.337371526500004      22.427932839900002
    73   1           10.3652159732      26.046476321099998      10.924121945900003
    74   1      6.5588245727999999      17.556124940100002      13.911849309100001
    75   1            9.3012004328      26.675262586600002      13.069326471400004
    76   1      19.634968134300003      6.7245852486000004      25.491018768000007
    77   1      1.8900689208999999      5.7683665840999998      12.715533077900004
    78   1      22.068618702500004           14.9295575918      19.240644268200004
    79   1      7.5862513086999988      19.201566171600003      15.278735403400002
    80   1      20.524533088900004      21.500863023800004      23.375777063900003
    81   1      17.411893513800003      14.296466160800001      29.552025629500005
    82   1      12.682754620400001      26.548643573600003      11.062766596000003
    83   1     0.71576439609999998      3.4295195788999999      15.585551077100002
    84   1      10.234264903999998      26.890915914199997      18.864202366900003
    85   1      20.616000287300004      17.460232311400002      10.846814239900004
    86   1      6.3395814700999997      15.885262651500005      21.255695597900004
    87   1            5.6014767098      0.4271633225999999      20.198095078900003
    88   1      19.921654750700004      26.188408950200003      13.590516462900002
    89   1      7.1790178383999992      26.640613869900001      16.578189623300005
    90   1      26.623544547900003      2.6587724824999999      17.452976982200003
    91   1      22.975252311200002      26.236054519200003      25.353052319400003
    92   1           10.0812096785      20.078592234600002      10.264409366000004
    93   1      1.6985300096999998      12.124535935400001      11.275032044400003
    94   1      19.069356944400003      27.120927600400002      26.351806326200006
    95   1      20.081340133100003      6.2120111178000004      21.908133618099999
    96   1      15.217288017500005      8.2391636121000005             14.29344569
    97   1      21.959420881600003      8.1279413533000007      14.501935277800003
    98   1      19.559115930200004      13.095201571300001      16.791234735500005
    99   1      18.481323096200001      4.7619403277999997      10.227285660700003
   100   1      24.142878530000004      7.0931473336000002      28.749100796500006
   101   1      25.457890214300004      5.9318117876000001      11.058918440100003
   102   1      21.050877142100003      11.265789508999999      17.161544633799998
   103   1      13.197092380799997      7.3165036451000001      13.602317863100001
   104   1      2.1161254041999999      2.2927490347999999      12.619364847300004
   105   1      14.963606460400003      16.237001952000004      18.897342105500002
   106   1      19.075072693400003      26.875924122399997      19.260518324600007
   107   1      6.3357033981999997      24.603918430299998      13.085618544700004
   108   1      6.7158013547999991      8.5323198991999991      21.894735388200001
   109   1      1.8244938182999999     0.49370680789999993      20.992504631500001
   110   1      24.437403108000002      23.359267494899999      11.316173948100003
   111   1      19.695418073500004      10.720817482499999      26.983476170200003
   112   1      7.1437348116999999      11.836664918199999      14.408645502800001
   113   1      13.881029327100002           10.5476958034      21.069040887200003
   114   1           13.4492164477      24.499769850200003      16.630946279900002
   115   1      19.676419506100004      3.0764775540999998      11.429509042000001
   116   1      17.912961583800005      20.865994889699998      28.559247719300007
   117   1      5.4792157916999997      4.6600621528000001      29.547664417100002
   118   1           11.8696934356            9.7283724266      24.063470026600001
   119   1      9.1680070966000002      21.794866865400003      18.728854618300002
   120   1      2.0796925074999995      4.3779706853000002      22.681877796600002
   121   1      22.985647656400005            1.4791880995      17.029072004700001
   122   1      25.577376196700001      6.7132092816000002      26.933379521500004
   123   1      22.566414008400002      15.682818491800001      29.178960417700004
   124   1      12.552813523099999      27.183272623500002           19.0653098941
   125   1      16.097989157700002      24.058221468400003      23.535026053300005
   126   1      21.673584871500001      4.8188269545000004      23.010433528600004
   127   1      23.211442602199998      24.833318770200002           27.1856805247
   128   1      27.302451686000005      7.1958958904000001      16.493016373600003
   129   1      27.181321702400002      4.8185661100999999      12.147959114200003
   130   1      13.156842896300001      5.9371643523999991      11.766440630000004
   131   1      4.6057165304999996      15.731384047800002      19.716834554599998
   132   1      20.482641688499999           11.9063874723      23.667248239400006
   133   1      19.800409497200004      25.218180462400003           29.6794963864
   134   1      1.8680483692000001      8.8731267760999994      26.592610991299999
   135   1      24.687481438200003           12.0257453822      10.327439728900004
   136   1      26.942988949200004      23.575573001300004      19.810888087800002
   137   1      23.586198443600004            9.3281537254      28.968951012900007
   138   1      22.977755166700003  0.00096427123506000005      29.892745487300001
   139   1      8.6553936338999993      5.2215307859999998      10.527955283500004
   140   1      25.009359881900004           10.1968150574      14.801673479700003
   141   1      3.7970841226999998      20.376155798000006      16.910615797100004
   142   1            3.1541000516      14.573601191300003      16.843108704300004
   143   1           23.4398500016            3.4426718769      26.229284583000005
   144   1      16.448931753300002      26.418314761500003      15.431587105600004
   145   1      5.3632884756000001      22.229644923500004      25.001942415900011
   146   1      25.383039316900003           15.1901761855      17.539590317900004
   147   1      3.0227629301999999      4.6551891657000004      24.816135438600003
   148   1      1.7454501741999999      15.583105546300002      26.349968493400002
   149   1      17.691267614500003            1.7207722793      26.013035575900002
   150   1      10.105035446600001      17.479050278400003      22.248464651500004
   151   1      9.5592656977000008      19.758126037699999      14.012485427900003
   152   1      1.5913660809999999            1.4484685861      14.672820280000002
   153   1      1.1934456896000001      26.371279977300002      22.840968049200004
   154   1      26.909757795799997      24.434057324500003      26.279177487500007
   155   1      9.1745923323999996           10.3154900593      16.954137676300004
   156   1      27.009772458099999      11.865097282199999      24.724777235000008
   157   1           17.6875345405      12.052691944799998      11.602163932500002
   158   1           10.3177354434      1.5319987273999998      15.996800448900002
   159   1      24.495052457900002      25.935389823800001      28.771046403200003
   160   1      18.891714460500005           18.3173714341      18.650465770200004
   161   1      10.156896593999999      12.971600667300001      19.012255507400006
   162   1      2.3148103366999995      26.908109720100001      18.890075054700006
   163   1      11.479163760900001      13.357218140300001      22.313572024500004
   164   1      23.523073412099997      23.152927087500004      21.324478595100004
   165   1      21.636619283000002     0.39586936820000002      13.684136203600003
   166   1            3.8809087325      12.152648855300001      12.038915649800002
   167   1      16.066056881900003      22.365434223299999      28.407374545100001
   168   1      24.732927179700003      20.505866930600003      18.255899057200004
   169   1      10.137718438599999            23.305363391      20.273195215200005
   170   1           20.2405319374      19.709055351900002      11.372108990500003
   171   1      2.0396901976000001      23.138442813700003      19.806183006200001
   172   1      19.429586992699999      17.958235312999999      29.555857532500003
   173   1            9.5026571595            0.5251558932      26.608390962800009
   174   1      20.411528972100005      21.540761838000002      25.669392665500006
   175   1      22.586576154000003      22.710120109300004      10.019806129600003
   176   1      18.636349887600005      8.2845983620000005      16.340352594600002
   177   1           10.3544126827      16.235991103200003      17.765350405300005
   178   1      9.4715116903999998      21.988095422400004      13.246918400200004
   179   1      17.886522616600001      9.2654812146999994      23.067388988000005
   180   1            7.2491944171      5.0120619507999997      26.342776373100001
   181   1      6.1630436326999991      27.274082582400002      24.047719204000003
   182   1      9.7300809744999999      8.7163022693999999      24.330181040300005
   183   1      4.7801182076999993      4.4600285609999997      14.700894944500002
   184   1      16.636433992899999      7.8958069232000003      21.635103761100005
   185   1      13.910140640400005      6.1200639099999998      28.993295247700001
   186   1      5.4350620274999999     0.76619030330000004      14.127071470900002
   187   1      1.0164635845000001      17.155937677300003      10.000000000000004
   188   1      2.9231451044999996      14.352353712800001      20.632447737500001
   189   1      8.9229673672000001           17.7298619311      18.824677249800004
   190   1      8.6300181908999996      17.727855723900003      29.945320315100005
   191   1      16.386853512300004      17.630581791700003      26.979126805400004
   192   1            9.5947126723            4.8366042422      26.241266315400001
   193   1      22.866399057100001      6.2710336507999997      24.405749456500008
   194   1      26.612027731900003      22.784532611100001      29.485811188700001
   195   1      4.9566969703000003            9.0114570426      16.258600472600001
   196   1      26.876785669999997      25.011789479100003      14.597625883700005
   197   1           10.2454043621      6.2804120278999997      21.800397654400005
   198   1      26.648912977300004      4.8988982939000003      29.883362090800006
   199   1      8.6209363709000009      5.2732340434999996      14.385738706100001
   200   1      7.6107269585000008      3.2729484965000002      11.412927158900002
   201   1      23.432388810500004            8.4268107769      10.588259424900004
   202   1      2.1108037891999998      9.3524434881000005      22.475053946700005
   203   1      17.410303332700003      2.4780318724999999      16.690899171500003
   204   1      4.4757480409000001      19.265756544400002      29.963157631300003
   205   1      6.1427097985000003      19.689326865899996      22.218991655600004
   206   1     0.51065210719999998            2.0893967054      25.049376606000003
   207   1      19.697836357400003           15.5240580658      13.734019927000004
   208   1           13.7190141806      7.8048783206000003      27.336502468500004
   209   1      25.742768750200003      18.798402479400004      17.071890418400002
   210   1           11.6581501569      19.078336184700003      14.843484614200003
   211   1            6.8834893866           22.6269442595      29.455768396100005
   212   1      8.7527765722000002      11.501773417700001      20.242394424100006
   213   1      13.566474009999999      14.487340153600003      19.565502565900005
   214   1      14.222135982799998            20.047452307      11.717401558500004
   215   1      27.038857097500003      15.399690188000001      27.565444969400005
   216   1      27.311373659199997               10.273759      26.520355865500001
   217   1      14.160866406300002      16.840917913600002      26.702962983600006
   218   1      9.0436006282000001      14.233401324200001      17.336492078000003
   219   1           13.4510644624      21.928177565300004      21.491893203500005
   220   1      9.4759273682000007      26.820685427399997      16.682919646200002
   221   1      20.341918059400005      15.118168409300003      17.649551419000005
   222   1      12.314055403299999      22.797995209000003      15.469992461200004
   223   1      25.233925706900003      8.0126856574000005      11.971376128100001
   224   1      22.800692667000003      10.621850007300001      10.460123794500001
   225   1      9.1591363175999998            9.6499621889      29.874116752900008
   226   1      5.0309292908999996     0.89482387479999992      11.825006051800001
   227   1            10.979236384      11.950010153299997      26.696980316900007
   228   1      7.0826623487999987      3.5704615811999996      28.236993726399998
   229   1      21.088773520300002      24.164965196600004      27.992930931000007
   230   1      13.664174211300001      9.9433719111999999      15.146361592500003
   231   1           17.4082173975      21.317907723900003      13.622738589000003
   232   1      6.6008182487999996      24.709995677200002      10.731415495700002
   233   1      2.6627203641000001      22.329975798800003      21.900078994500003
   234   1      26.588355435800004      16.849896693500003      24.025797021800003
   235   1      7.3430758038999988      4.0029392979000002      20.722645601900005
   236   1      3.6613768984999999           10.3315152408      26.939607152500002
   237   1      2.2560271520000001           13.6568759049      14.883793941100002
   238   1      2.6541813421999998      27.000704672000005      26.889860088900004
   239   1      25.597006023000002      21.220386982199997      10.892723855300002
   240   1      12.583984364200001            1.5702468747      10.672826977400003
   241   1           12.6162687071           10.6045649087      29.727555953400007
   242   1           10.5591785051      6.7681519662999987      25.334816381900005
   243   1      19.396055195200002      23.583629992700001      26.449794290400003
   244   1      23.635341774600004      12.196462522199999      14.986962062800004
   245   1      16.471493681200002      23.392852541100005      18.387226907900001
   246   1      8.3474295089999995      22.704620423600002      16.690249542600004
   247   1      6.3206257430999999      2.7307828626999999      15.041519806200004
   248   1      2.5132660908000002      12.136768525200001      28.050584791200006
   249   1      3.7392115500999998      11.100973776599998      19.197213393600002
   250   1      5.6918288702000002      17.471613080100006      22.901142389700002
   251   1      4.8885167261999989      19.447317315900005      11.724683606100003
   252   1      23.504282732000004      9.0528159272999975      19.660157238700002
   253   1      27.279480978600002      17.068226708700003      29.208702299500008
   254   1      15.969135822400004     0.66179812010000005           17.1203514089
   255   1           13.9981853092      10.063466849499999      27.887854392599998
   256   1      15.410819311899999            1.4696501564      26.586462414400007
   257   1      25.717722138500001            1.9204555443      19.703089222700005
   258   1           11.6332134963      14.185364551100003      26.147949815300002
   259   1      14.309962330400003      8.2492180236999992      21.547159831900004
   260   1      18.124394220200003      2.6108282575000001      23.874501374700007
   261   1      10.119259854299999            2.6249571044      25.544035362300004
   262   1      12.664519562800001           15.8576287514      11.912997855400004
   263   1      3.5652386717999995      17.744140097000002      24.012288629400008
   264   1      13.658865342799997      2.2847087910999999      29.929611903900003
   265   1      26.022963623600003            1.3193427622      12.713845293700004
   266   1      22.511550959500003      13.578751264899999      28.202363200800001
   267   1      26.548619320000004      20.197010652700005      22.379680200900001
   268   1      3.6242097164999998      1.1633239255999999      17.668263097200004
   269   1      8.1628729972999992      7.6757620628999987      29.031436957500006
   270   1      20.617112444100002           11.5049766552      20.651411786800001
   271   1      7.0721259221999988            2.9575660549      17.288824479500001
   272   1      5.2750072131000003      3.1831078663999999      11.320027227200004
   273   1      3.9605012518999998      5.5938114823999996           27.9583036796
   274   1      16.095748129900002      16.774603530100002      22.658756490000002
   275   1      9.4853884000999997      1.6296666551000001      19.586311664200004
   276   1      18.119003901700005      26.134184826000002      28.355087496100008
   277   1      21.999811947600001      24.539213117000003      17.912579330499998
   278   1      22.934499569299998     0.21710870709999996      21.051491923700006
   279   1      6.8129393789000003      13.058191845000001      27.246416363800005
   280   1      24.719714143899999      2.0590293021999995      27.561869080900003
   281   1      16.576142809000004      17.560159519500001      11.186911674800003
   282   1      18.631895260700002      15.981543831500003      19.023142924600002
   283   1      13.745104137199998      23.246070867600004      13.537795167800002
   284   1      13.008456042500001      10.906102929999998      25.798254529100006
   285   1      13.956619718200001      15.799565439000002           23.1376602994
   286   1      4.5763514926999997      24.173909461600005           17.1217381437
   287   1      4.9651431549999998      23.117252889400003      10.099968349800003
   288   1      13.736748782000003      13.894959848500003      21.838308333300006
   289   1           13.7144622049      18.649782438500004      13.707240092200003
   290   1      8.8231678687000006      22.659394368200001      22.166961984000004
   291   1      15.966014496200003      1.0980154955000001      11.440423783700002
   292   1      15.650272324500005      22.424008690100003      14.731153520099999
   293   1      4.8695067230999998      20.613577198599998      26.672529463300005
   294   1      20.386469443800006      16.569622425400002      15.765123871300004
   295   1      21.844265126500002      22.539718361400002      16.655927294000001
   296   1      5.1017580882000004      13.175248312900001      25.643987009400007
   297   1           23.3118816522      20.839327057900004      21.194363271200004
   298   1      20.825788033800002           13.8760989796      20.951587159300004
   299   1      4.0230305380000004      6.7968500223000001      24.648605386600007
   300   1      22.925475877900002      18.973426264300002      22.649861456000004
   301   1      3.9195512717000001      3.8352990419999999           21.3374428712
   302   1      8.9457142388000008      15.486434126000001      29.174427826700008
   303   1      12.583015885099998     0.25419326599999997      24.723823120300011
   304   1      2.9290630597999998      3.4430445790999995      17.979413487100004
   305   1      17.327578645100004      25.373496559300005      10.851948254300002
   306   1      3.4178545105999993      8.2463497505000003      14.661616979000003
   307   1      25.163282135999999      15.890077788400003      22.333842900800004
   308   1      20.215485903700003            4.3256550824      18.427737939100005
   309   1      24.176407689700003      25.304676730800001      17.423847515199999
   310   1      11.841575994899999      6.0734281237000003      23.489110954400005
   311   1      7.3501905574000004      22.235301878600005      20.148568867600005
   312   1      2.3391380073999999      20.128595368400006      29.325976394400005
   313   1      20.783527457200002      14.036875496300002      26.760853968700005
   314   1      7.0926900489999998      24.517907835400003            19.694036207
   315   1      15.326979928100002      6.7100710260999996      16.145532965500003
   316   1      7.4734810366000008      1.6581499743000001      20.758741374900001
   317   1      9.2599174449999992      18.671410135000002      11.959836413800003
   318   1      23.720642647899997      10.326884595099999      26.878378501100006
   319   1      14.922752560400001            4.5109940516      12.115833940800004
   320   1      24.079110202800003      17.621981583499998      21.122483709200004
   321   1      23.401515727100001            1.4710462137      23.022098794200005
   322   1      4.7228044279999999             0.806839906      29.985544188700004
   323   1           12.5385025675      26.086550292700004      15.162124868900001
   324   1      17.252665538400006      18.643897167400002      28.960519980400004
   325   1      6.1820822605999997           11.7679054602      29.066457320000001
   326   1      15.626012378400002      5.2667764015999987      25.529418279300007
   327   1      18.775290388699997           11.2520389316      22.130621164900006
   328   1      27.130079356000003            0.0359557322      14.335489706500002
   329   1      3.7620179127000002      17.033842871700003      29.537426173800007
   330   1      20.931091786500001      7.4790634046999998      16.519000191400004
   331   1      19.552496503600004      22.445396416400001      13.710884350000002
   332   1      8.4958906563999985      13.157628689000001      24.161663567000005
   333   1      13.988409201000003      16.266564995300005      13.763974315900004
   334   1      23.028255066199996      3.6961672586000001      13.097178200500004
   335   1      23.588650133200002      18.908133722300001      29.364249353700004
   336   1             11.78307408      15.962214787500001      19.676917271600004
   337   1      16.768950568800005      27.117669830099999      19.098750056500002
   338   1      16.413356478300003      9.4601017593000005      24.956931658300004
   339   1      25.697547788800001      2.6771320957000002      29.671088302000005
   340   1             7.123973039      22.383888453900003      13.254743266700004
   341   1      19.069789951400004      26.385434219399997      21.564922455600005
   342   1      15.780363553800003           13.1129080954      28.255105904400008
   343   1      7.0565987027999988      13.725153873999998      12.982163407500003
   344   1      6.5404267649999994      17.223670470300004      26.745667799400003
   345   1           13.3081121958      22.220254560500003      11.466723431800002
   346   1      12.368882881699999      17.007869575200004      21.742571606300004
   347   1      9.6889378323999988      6.1199828814000004      12.489635749100001
   348   1      19.367432025000006      1.2322340706999999      16.634843215600004
   349   1      2.8769394821000001           21.4748285252      27.463294274900008
   350   1      10.853319662600001      9.3328369818999999      18.323788885199999
   351   1           13.8163309824      1.3319205866999999      17.743675178500006
   352   1      24.680760109900003      5.2063849791000001      25.364341427400007
   353   1      23.442860312400004      16.748212026200004      25.776674317300003
   354   1      21.584902480200004           12.0277716007      13.828280367800001
   355   1      15.622682505500002      13.434594360299998      25.840537931300002
   356   1           10.1492656273      19.714353779100001      21.675271811700004
   357   1      12.562246571399998            0.9709693948      15.866526424000003
   358   1      22.620759527800004           10.4993545165      21.370070631200004
   359   1           16.7659369918      1.7851148379999999      20.340189301300001