LAMMPS (22 Jul 2025)
  using 4 OpenMP thread(s) per MPI task
units           metal
dimension       3
boundary        p p p
atom_style      atomic

timestep        0.001

read_data       Ti_aSi_PBC.data
Reading data file ...
  orthogonal box = (0 0 0) to (27.344798 27.344798 49.225544)
  1 by 2 by 2 MPI processor grid
  reading atoms ...
  1810 atoms
  read_data CPU = 0.008 seconds

group           si_atoms type 1
730 atoms in group si_atoms
group           ti_atoms type 2
1080 atoms in group ti_atoms

mass            1 28.0855  # Si
mass            2 47.867   # Ti

pair_style      tersoff
pair_coeff      * * TSCBOP.tersoff Si Ti

neighbor        2.0 bin
neigh_modify    delay 0 every 1 check yes

thermo          100
thermo_style    custom step temp pe press vol
minimize        1.0e-6 1.0e-8 1000 10000
Neighbor list info ...
  update: every = 1 steps, delay = 0 steps, check = yes
  max neighbors/atom: 2000, page size: 100000
  master list distance cutoff = 5.8838
  ghost atom cutoff = 5.8838
  binsize = 2.9419, bins = 10 10 17
  1 neighbor lists, perpetual/occasional/extra = 1 0 0
  (1) pair tersoff, perpetual
      attributes: full, newton on
      pair build: full/bin/atomonly
      stencil: full/bin/3d
      bin: standard
Per MPI rank memory allocation (min/avg/max) = 6.867 | 6.869 | 6.872 Mbytes
   Step          Temp          PotEng         Press          Volume    
         0   0             -7969.1457      40203.497      36807.809    
        87   0             -8335.5906     -53567.848      36807.809    
Loop time of 1.48039 on 16 procs for 87 steps with 1810 atoms

99.9% CPU use with 4 MPI tasks x 4 OpenMP threads

Minimization stats:
  Stopping criterion = energy tolerance
  Energy initial, next-to-last, final = 
     -7969.14569514739  -8335.58602839426  -8335.59060682912
  Force two-norm initial, final = 124.35609 6.2350718
  Force max component initial, final = 16.796723 1.6158869
  Final line search alpha, max atom move = 0.069187373 0.11179897
  Iterations, force evaluations = 87 163

MPI task timing breakdown:
Section |  min time  |  avg time  |  max time  |%varavg| %total
---------------------------------------------------------------
Pair    | 0.47006    | 0.97281    | 1.4697     |  50.3 | 65.71
Neigh   | 0.0017671  | 0.0022665  | 0.0027243  |   0.9 |  0.15
Comm    | 0.0058799  | 0.50212    | 1.0042     |  69.9 | 33.92
Output  | 0          | 0          | 0          |   0.0 |  0.00
Modify  | 0          | 0          | 0          |   0.0 |  0.00
Other   |            | 0.003183   |            |       |  0.22

Nlocal:          452.5 ave         495 max         407 min
Histogram: 2 0 0 0 0 0 0 0 0 2
Nghost:         1332.5 ave        1386 max        1280 min
Histogram: 1 1 0 0 0 0 0 0 1 1
Neighs:              0 ave           0 max           0 min
Histogram: 4 0 0 0 0 0 0 0 0 0
FullNghs:        19981 ave       24065 max       15804 min
Histogram: 2 0 0 0 0 0 0 0 0 2

Total # of neighbors = 79924
Ave neighs/atom = 44.156906
Neighbor list builds = 3
Dangerous builds = 0
reset_timestep  0

velocity        all create 300.0 12345 dist gaussian
fix             1 all npt temp 300.0 300.0 0.1 iso 0.0 0.0 1.0

run             30000
Per MPI rank memory allocation (min/avg/max) = 5.742 | 5.744 | 5.747 Mbytes
   Step          Temp          PotEng         Press          Volume    
         0   300           -8335.5906     -51532.196      36807.809    
       100   270.70958     -8338.5871      4670.6411      34849.168    
       200   356.6282      -8355.253       1984.3879      34956.136    
       300   391.14073     -8378.8492     -328.86806      34876.92     
       400   388.34699     -8397.7373     -35.571321      34867.808    
       500   389.64138     -8418.7594      221.20845      34850.95     
       600   387.69834     -8438.3583      494.96242      34699.653    
       700   378.0089      -8457.4747      558.91707      34640.523    
       800   364.74219     -8474.7115     -838.96917      34633.419    
       900   340.85059     -8487.5115     -2645.1489      34624.787    
      1000   336.74442     -8502.7631      92.471287      34485.177    
      1100   330.08635     -8515.9812     -233.57752      34453.17     
      1200   313.32724     -8525.2743     -1061.793       34434.765    
      1300   312.66425     -8537.7867      261.06017      34434.386    
      1400   302.76012     -8546.3279      677.97651      34435.189    
      1500   306.16495     -8555.3024      334.94349      34360.607    
      1600   307.23524     -8562.7965      2731.1837      34328.821    
      1700   292.93149     -8565.431      -2066.3865      34351.376    
      1800   293.53652     -8569.3022      258.69882      34307.697    
      1900   293.93698     -8571.9494      651.9066       34378.343    
      2000   299.13253     -8575.172       2444.41        34324.889    
      2100   296.31369     -8576.3138     -310.5596       34358.951    
      2200   305.48226     -8579.4466      1308.4296      34335.219    
      2300   302.77568     -8581.3465      508.14583      34325.533    
      2400   297.07077     -8582.3235     -135.63973      34345.094    
      2500   298.16602     -8585.0325      1146.0861      34301.21     
      2600   295.87174     -8587.5775     -276.02548      34342.572    
      2700   296.28997     -8591.0765     -1686.1948      34383.402    
      2800   302.17748     -8595.6365      1925.3477      34308.179    
      2900   297.75247     -8596.5435      1514.5546      34295.765    
      3000   296.42132     -8596.2771     -688.93829      34307.251    
      3100   308.78609     -8598.1205      1222.5489      34289.043    
      3200   311.28455     -8600.0308     -2394.4297      34342.656    
      3300   307.20603     -8603.2651     -257.82512      34308.951    
      3400   295.70901     -8606.2765      1403.9137      34352.98     
      3500   295.7817      -8609.7601      1350.1397      34281.931    
      3600   289.56852     -8609.2128      1002.4441      34291.771    
      3700   304.2771      -8611.5846     -2865.3421      34323.117    
      3800   311.67656     -8612.5004      533.5819       34268.891    
      3900   303.36873     -8613.8127      93.868478      34319.583    
      4000   304.53614     -8619.1635     -1612.8162      34270.41     
      4100   298.83113     -8622.55       -1688.9604      34252.515    
      4200   302.02413     -8625.5739     -2155.4404      34266.212    
      4300   298.11925     -8625.6466     -1008.3728      34265.647    
      4400   302.55193     -8626.3371     -332.3012       34212.135    
      4500   301.7468      -8625.8122      2102.8627      34214.344    
      4600   310.53966     -8629.4208     -2681.2164      34277.536    
      4700   293.53218     -8628.7692      75.205324      34152.465    
      4800   295.94506     -8632.8641     -456.29799      34267.048    
      4900   300.0897      -8635.7265     -2540.2859      34242.063    
      5000   295.73709     -8636.1568      1302.6147      34199.721    
      5100   302.22061     -8638.1739      2176.9543      34218.954    
      5200   306.97808     -8639.3256      1990.7382      34141.262    
      5300   302.86908     -8639.8817     -2414.6436      34249.362    
      5400   296.84727     -8641.0849     -762.22078      34203.822    
      5500   295.74882     -8642.6013      37.551055      34183.164    
      5600   297.33556     -8642.7085     -1875.3435      34225.881    
      5700   299.77643     -8641.2165     -1153.907       34192.108    
      5800   299.67071     -8640.5346     -1116.7313      34246.786    
      5900   306.94688     -8644.9848     -1141.3959      34199.627    
      6000   310.64141     -8648.5616      2217.1004      34154.042    
      6100   302.25129     -8649.0839      2251.5779      34167.941    
      6200   293.40552     -8649.233      -451.29689      34215.228    
      6300   305.93481     -8653.1097     -1259.8757      34231.893    
      6400   295.91221     -8651.676       372.55914      34181.909    
      6500   291.57323     -8653.7337     -1577.3263      34220.559    
      6600   287.63818     -8653.8883     -676.20116      34174.996    
      6700   302.45906     -8655.2959      493.81537      34169.005    
      6800   306.15095     -8652.9438      651.1624       34159.984    
      6900   312.65298     -8652.3119     -1538.9957      34170.492    
      7000   303.58001     -8654.9572     -3193.118       34186.951    
      7100   303.60945     -8657.2914     -783.56264      34180.626    
      7200   301.09423     -8659.3095      774.34862      34124.451    
      7300   300.60331     -8660.0139      4.6584097      34128.336    
      7400   307.85682     -8661.5447     -3828.1431      34186.651    
      7500   302.25888     -8661.7227     -1445.5954      34108.735    
      7600   300.1602      -8663.1723      521.66033      34075.979    
      7700   295.34299     -8663.9977     -97.418629      34102.652    
      7800   295.80561     -8662.9841     -1192.5759      34128.443    
      7900   303.40361     -8661.63        1887.1518      34132.306    
      8000   309.0314      -8663.9362      1085.9437      34089.396    
      8100   303.79434     -8665.8456      1608.5377      34093.271    
      8200   296.95701     -8666.0427      3305.8454      34054.124    
      8300   299.84749     -8668.1012     -1850.8225      34115.491    
      8400   294.00303     -8667.8144     -121.74518      34102.192    
      8500   298.58298     -8669.339       349.76077      34102.336    
      8600   302.23271     -8668.6443      1594.4729      34062.151    
      8700   304.64321     -8666.514       2.8274664      34076.863    
      8800   306.30308     -8666.8365     -1641.8562      34136.799    
      8900   305.20431     -8669.4211     -576.43724      34089.439    
      9000   300.53973     -8669.5815      1370.3139      34080.84     
      9100   301.00783     -8669.3678      852.93973      34112.933    
      9200   309.91418     -8670.5047     -3721.3506      34151.076    
      9300   305.63335     -8668.6438     -384.89388      34078.462    
      9400   301.63515     -8669.6012     -1336.7035      34152.047    
      9500   303.61394     -8672.7841      4753.6203      34001.259    
      9600   304.27194     -8674.2464     -836.57145      34050.56     
      9700   298.83017     -8673.6626     -5689.9175      34146.604    
      9800   294.76791     -8673.3932     -2730.0713      34075.613    
      9900   298.13175     -8675.3023     -2806.3786      34079.97     
     10000   298.86108     -8675.4728     -1970.3443      34103.481    
     10100   301.28964     -8674.82        1050.2168      34030.932    
     10200   305.21397     -8674.3306     -1103.1762      34065.755    
     10300   299.77243     -8672.7359     -1972.3371      34092.944    
     10400   305.49611     -8677.2385      1017.8521      34086.671    
     10500   301.00762     -8678.4915      4555.2849      33989.476    
     10600   294.40372     -8677.67       -2292.5252      34118.485    
     10700   293.69232     -8676.8635      1256.7648      34032.135    
     10800   309.6872      -8677.9452     -1396.7853      34079.603    
     10900   308.00825     -8676.1581      355.21267      34076.505    
     11000   308.15942     -8679.3027      619.68825      34080.67     
     11100   295.89853     -8678.4458      1476.1587      34086.201    
     11200   302.96113     -8680.3416      1468.614       34054.223    
     11300   294.78357     -8678.635      -653.71409      34079.174    
     11400   304.68673     -8680.2584     -1867.3703      34103.619    
     11500   304.91532     -8680.7418      739.72339      34111.245    
     11600   298.36938     -8682.655       2570.1427      34014.015    
     11700   293.60143     -8684.3413     -715.80072      34111.171    
     11800   302.19467     -8688.149      -3158.2343      34078.004    
     11900   297.2856      -8689.1123      821.64452      34075.554    
     12000   297.86552     -8690.386       2280.4343      34006.021    
     12100   296.03482     -8689.9816     -531.61568      34052.186    
     12200   304.33571     -8690.3552     -120.31734      34073.488    
     12300   316.01287     -8692.2963     -1183.4725      34061.425    
     12400   307.86576     -8693.0462     -213.93451      34058.953    
     12500   300.46697     -8693.7051      525.86139      34033.431    
     12600   301.97023     -8694.2849      3582.4388      34017.095    
     12700   300.57009     -8694.0815      1148.8189      34048.356    
     12800   297.54955     -8695.1964      354.80261      34053.879    
     12900   291.47313     -8696.1668     -3372.4832      34083.285    
     13000   296.3811      -8696.4969     -961.03412      34036.245    
     13100   294.36047     -8692.8706      668.66764      34059.432    
     13200   302.05958     -8693.9215      5.1100101      34038.595    
     13300   301.21653     -8694.8683      1459.1435      34040.617    
     13400   300.02796     -8696.3697      213.37792      34007.508    
     13500   292.26241     -8695.6126      2984.8836      33988.193    
     13600   297.10774     -8696.419      -2354.49        34048.76     
     13700   307.81206     -8696.1437     -804.84788      34037.469    
     13800   310.47705     -8696.1729      2922.7975      33986.231    
     13900   308.1833      -8699.0245      363.13898      34049.204    
     14000   307.34237     -8701.4321     -342.55571      34041        
     14100   298.04104     -8701.4787     -1019.8994      33998.232    
     14200   292.92282     -8701.8788     -97.237646      34059.913    
     14300   296.44231     -8703.1358      578.09966      34010.096    
     14400   293.85051     -8701.5232      1096.104       34025.027    
     14500   304.03415     -8700.9567     -3110.8762      34054.863    
     14600   307.14312     -8702.0661      971.62184      33993.062    
     14700   301.14701     -8703.5277     -799.89507      34072.515    
     14800   302.16907     -8704.9306      2711.2564      33963.381    
     14900   301.33324     -8704.7801     -1170.3495      34028.502    
     15000   296.91876     -8703.8943     -202.52145      34019.014    
     15100   296.04851     -8704.9669      890.93297      33980.422    
     15200   299.31441     -8708.0411      1249.0699      33982.744    
     15300   295.67565     -8708.329      -837.98333      34034.835    
     15400   299.35086     -8708.4754      407.04952      33993.544    
     15500   306.80189     -8707.7349     -1161.2729      34059.658    
     15600   311.61491     -8708.4484     -387.24423      34024.184    
     15700   306.11577     -8711.2204      1762.1544      33938.519    
     15800   298.43322     -8711.2846      1099.4981      34010.837    
     15900   300.58479     -8712.3144      635.57717      34023.442    
     16000   300.52336     -8713.2178     -44.581794      33978.911    
     16100   299.88827     -8715.5219      242.7072       33960.396    
     16200   292.87547     -8715.5253      323.56916      34007.912    
     16300   301.42843     -8715.3624     -1692.8255      34002.397    
     16400   303.8979      -8714.4143     -2646.0649      33999.657    
     16500   301.89748     -8713.5331      1024.8024      33966.777    
     16600   296.08735     -8712.6613     -409.98053      33987.151    
     16700   301.37531     -8715.9822     -899.15458      34000.88     
     16800   291.27518     -8715.5068      1212.8199      33967.595    
     16900   296.34953     -8716.0187     -475.15048      33993.244    
     17000   303.85553     -8713.6385     -1117.2946      34001.12     
     17100   307.6095      -8713.8914      369.22776      33987.893    
     17200   305.05579     -8715.4252      3198.8181      33914.425    
     17300   295.70731     -8715.733      -1383.7392      33984.524    
     17400   295.81649     -8715.9458     -2284.2558      34057.95     
     17500   303.56292     -8716.848       1970.3231      33997.513    
     17600   311.96835     -8716.1133      4401.7466      33921.748    
     17700   313.49215     -8715.4177     -313.06078      34041.348    
     17800   305.25916     -8717.3253      1042.4611      33978.61     
     17900   296.85663     -8716.9429     -1096.9332      34011.486    
     18000   299.06405     -8718.0566     -810.53754      34014.651    
     18100   299.50689     -8718.3425     -718.66629      33987.328    
     18200   299.04387     -8717.0276      1256.3463      33991.513    
     18300   311.70015     -8717.6128     -623.43112      34003.818    
     18400   305.04905     -8715.7796      1129.0558      33967.91     
     18500   298.95466     -8717.7177     -1980.439       33995.289    
     18600   296.09064     -8718.8649     -4326.7556      34071.995    
     18700   303.82657     -8720.1094     -254.58765      33984.881    
     18800   302.49859     -8718.7332     -732.16791      33966.344    
     18900   296.70978     -8715.4515      450.53722      34031.797    
     19000   315.16918     -8717.5111      2227.6481      33945.493    
     19100   304.86193     -8718.0665      2335.7748      33960.768    
     19200   305.03947     -8719.832       743.39978      33971.97     
     19300   292.21365     -8718.0986     -1012.4333      34032.722    
     19400   302.84977     -8720.682       766.32294      33986.855    
     19500   302.79741     -8720.3421      1093.5784      33971.985    
     19600   306.16112     -8719.3095      183.00228      33987.829    
     19700   306.14092     -8717.77       -365.83532      33995.398    
     19800   299.24732     -8717.6218     -3751.0565      34052.52     
     19900   294.96888     -8719.5984     -1615.4346      33999.22     
     20000   295.55152     -8720.2543      3057.3117      33952.132    
     20100   295.90937     -8720.46       -2665.4284      34015.403    
     20200   304.883       -8721.4331     -105.72361      33991.381    
     20300   307.41301     -8719.465       1003.2958      33949.004    
     20400   309.0589      -8716.9575      935.62907      33989.084    
     20500   308.27169     -8719.5865     -1219.2667      33993.386    
     20600   307.12773     -8721.5133     -283.9548       33960.529    
     20700   294.35084     -8720.4938     -2466.2537      34005.298    
     20800   298.91485     -8722.3793      1166.4852      33931.771    
     20900   297.29601     -8721.7978      3586.543       33918.02     
     21000   308.47281     -8722.8153     -2591.1257      33986.603    
     21100   305.47021     -8721.3983     -1501.7403      34008.365    
     21200   307.21647     -8723.3351      548.23757      33908.375    
     21300   299.6818      -8724.593      -1019.3934      33987.553    
     21400   294.6495      -8723.645       163.80907      33973.593    
     21500   295.35734     -8721.9543      187.59942      33935.381    
     21600   305.55084     -8721.8814      3009.8593      33920.404    
     21700   307.7729      -8722.3992      872.3172       33920.286    
     21800   299.32139     -8721.3854     -3804.4854      34058.141    
     21900   300.06471     -8722.7405      1649.6175      33907.798    
     22000   307.95628     -8726.417       1618.0907      33925.45     
     22100   298.83591     -8726.1838     -998.717        33961.874    
     22200   295.78672     -8725.37        995.30048      33939.429    
     22300   298.15535     -8725.756       31.0449        33986.422    
     22400   293.64015     -8724.4614     -955.87367      33953.306    
     22500   301.69446     -8725.4373      1158.2603      33873.776    
     22600   294.75321     -8724.3209      123.04142      33932.007    
     22700   306.78108     -8727.1823     -2868.3403      33978.462    
     22800   306.06756     -8726.8928     -47.028055      33927.493    
     22900   294.96255     -8725.2196     -1071.8675      33917.53     
     23000   299.20249     -8728.6452     -674.98313      33957.432    
     23100   293.30662     -8728.6926     -231.30673      33893.281    
     23200   299.14903     -8728.2874     -124.96412      33929.053    
     23300   303.34017     -8726.6464      2227.0412      33935.966    
     23400   313.44304     -8728.9041     -803.31712      33937.76     
     23500   296.08832     -8726.1421     -1882.305       33953.317    
     23600   299.01375     -8728.8744     -737.53424      33955.452    
     23700   302.26598     -8730.8743      1304.3544      33890.91     
     23800   300.27743     -8731.1401     -1027.6943      33958.678    
     23900   296.86233     -8732.151       1280.7723      33905.822    
     24000   288.0234      -8732.8947     -1416.1247      33932.827    
     24100   297.89087     -8734.3676     -2881.7266      33929.246    
     24200   305.87512     -8733.1291      2079.61        33888.709    
     24300   302.4273      -8732.0897     -1532.4561      33918.09     
     24400   302.96059     -8732.9055     -3313.4955      34005.029    
     24500   301.63264     -8734.7303      2483.6662      33860.719    
     24600   297.42778     -8735.9314     -698.53166      33905.603    
     24700   294.15788     -8734.9419     -85.994689      33921.658    
     24800   306.53831     -8733.7561      748.48472      33901.988    
     24900   312.86586     -8734.063      -2409.2596      33971.048    
     25000   303.58221     -8733.7421      1089.5536      33894.537    
     25100   295.24793     -8734.4006      2241.4745      33870.515    
     25200   295.11134     -8734.623      -3958.1674      33947.676    
     25300   295.92876     -8733.7239     -204.40512      33913.773    
     25400   300.56292     -8732.1731      1533.487       33856.505    
     25500   302.22512     -8729.7395     -443.63616      33946.379    
     25600   302.99755     -8732.324      -2470.6585      33919.64     
     25700   293.85665     -8733.6506     -1857.5488      33945.428    
     25800   294.06425     -8734.2638     -2526.0788      33941.715    
     25900   303.60601     -8735.6111     -893.23756      33904.375    
     26000   305.18844     -8735.0591     -739.31191      33922.274    
     26100   298.07037     -8733.0346     -334.50557      33912.597    
     26200   306.87267     -8735.1163     -1653.4715      33911.771    
     26300   296.27972     -8734.6482      256.90858      33904.25     
     26400   291.77334     -8735.4974     -92.852985      33880.448    
     26500   295.9947      -8735.359      -2179.3644      33922.912    
     26600   303.43339     -8733.6128      801.08645      33913.381    
     26700   305.37865     -8733.702       1707.7382      33905.962    
     26800   299.38736     -8733.8733     -2622.443       33940.957    
     26900   297.75388     -8735.5         417.05421      33905.656    
     27000   296.89657     -8736.3014      1120.6942      33901.65     
     27100   296.40206     -8736.0013     -882.60063      33920.944    
     27200   298.49085     -8736.4041      1146.8189      33881.145    
     27300   301.27645     -8736.8237     -2011.0913      33981.34     
     27400   300.18372     -8736.526      -1041.5407      33947.638    
     27500   303.16161     -8737.0556      3811.9641      33863.46     
     27600   299.1302      -8736.1574      1998.7394      33886.1      
     27700   303.17908     -8737.2332     -1161.0453      33931.952    
     27800   298.75356     -8736.8361     -1642.1372      33911.115    
     27900   297.82334     -8738.9661      1583.9458      33880.395    
     28000   301.19498     -8740.9994      58.578233      33890.611    
     28100   306.09861     -8740.1868     -466.3379       33897.796    
     28200   297.40429     -8735.9773     -392.48014      33868.394    
     28300   309.75142     -8738.2486     -2164.616       33939.123    
     28400   305.30719     -8738.3597     -185.37874      33865.333    
     28500   302.82028     -8739.1542     -1366.4656      33901.008    
     28600   298.3825      -8739.0737     -511.63576      33878.738    
     28700   301.47194     -8740.315      -2309.2895      33907.476    
     28800   301.62391     -8739.6879     -1073.4057      33938.533    
     28900   300.65845     -8737.1287      3124.9478      33831.604    
     29000   299.08156     -8735.7511      552.63922      33894.825    
     29100   303.16733     -8738.2713      1318.5802      33892.771    
     29200   301.6927      -8740.9465      1376.715       33862.431    
     29300   296.024       -8740.3932     -137.77955      33896.631    
     29400   296.07335     -8739.3458      1643.1245      33917.302    
     29500   300.85688     -8738.8394      486.70985      33905.129    
     29600   305.06345     -8737.4288      64.390784      33918.704    
     29700   307.5708      -8738.0398     -108.62976      33908.121    
     29800   301.01488     -8740.4898      1914.6366      33866.218    
     29900   295.24641     -8740.7083     -825.06537      33866.596    
     30000   288.21013     -8739.8457     -4312.2636      33981.815    
Loop time of 303.064 on 16 procs for 30000 steps with 1810 atoms

Performance: 8.553 ns/day, 2.806 hours/ns, 98.989 timesteps/s, 179.170 katom-step/s
100.0% CPU use with 4 MPI tasks x 4 OpenMP threads

MPI task timing breakdown:
Section |  min time  |  avg time  |  max time  |%varavg| %total
---------------------------------------------------------------
Pair    | 129.77     | 214.52     | 298.22     | 570.1 | 70.78
Neigh   | 0.099092   | 0.10507    | 0.11072    |   1.5 |  0.03
Comm    | 4.0431     | 87.723     | 172.45     | 891.2 | 28.95
Output  | 0.0029961  | 0.014473   | 0.048634   |  16.4 |  0.00
Modify  | 0.58172    | 0.61223    | 0.63208    |   2.4 |  0.20
Other   |            | 0.09118    |            |       |  0.03

Nlocal:          452.5 ave         479 max         429 min
Histogram: 2 0 0 0 0 0 0 0 1 1
Nghost:        1394.75 ave        1411 max        1383 min
Histogram: 1 0 1 0 1 0 0 0 0 1
Neighs:              0 ave           0 max           0 min
Histogram: 4 0 0 0 0 0 0 0 0 0
FullNghs:        21200 ave       24151 max       18466 min
Histogram: 2 0 0 0 0 0 0 0 0 2

Total # of neighbors = 84800
Ave neighs/atom = 46.850829
Neighbor list builds = 109
Dangerous builds = 0

unfix           1
reset_timestep  0

compute         msd_si si_atoms msd
compute         msd_ti ti_atoms msd
compute         pe_atom all pe/atom
compute         ke_atom all ke/atom

thermo_style    custom step temp pe press vol c_msd_si[4] c_msd_ti[4]
thermo          1000

dump            1 all custom 10000 dump.anneal.lammpstrj id type x y z vx vy vz c_pe_atom c_ke_atom

fix             2 all npt temp 623.15 623.15 0.1 iso 0.0 0.0 1.0

run             2000000
Per MPI rank memory allocation (min/avg/max) = 6.992 | 6.997 | 7.001 Mbytes
   Step          Temp          PotEng         Press          Volume      c_msd_si[4]    c_msd_ti[4]  
         0   288.21013     -8739.8457     -4312.2636      33981.815      2.2296465e-32  2.5750397e-34
      1000   623.58235     -8669.8033      833.3376       34089.071      0.090448605    0.15528545   
      2000   636.89613     -8704.8239      1392.1809      33938.925      0.16102466     0.24592815   
      3000   620.22218     -8714.5957      668.99154      33959.852      0.25984394     0.33874034   
      4000   617.05777     -8725.7379      1527.5054      33922.902      0.26894296     0.37901242   
      5000   629.63015     -8740.962       4288.8699      33769.244      0.34118589     0.47830017   
      6000   618.20122     -8755.93       -224.02659      33796.538      0.42002228     0.5834277    
      7000   627.4855      -8771.203       2194.506       33652.922      0.48371493     0.64984412   
      8000   629.78851     -8785.1509      2613.4804      33629.615      0.56356873     0.769451     
      9000   609.50721     -8793.6177     -1902.1752      33660.188      0.62108145     0.82469834   
     10000   634.61601     -8804.4803     -3988.3337      33700.271      0.69769149     0.86595951   
     11000   643.65288     -8830.9688      413.80716      33483.604      0.75547868     1.0266028    
     12000   622.33787     -8844.8302      2897.974       33439.047      0.8251972      1.0810476    
     13000   625.35321     -8860.1362     -591.99345      33405.275      0.88973678     1.1490511    
     14000   625.52723     -8860.5049      4060.9674      33349.708      0.95752592     1.2340194    
     15000   635.25383     -8871.8872     -623.14821      33306.664      1.0070999      1.2804792    
     16000   627.14568     -8885.6215      941.51671      33243.954      1.0130994      1.3883027    
     17000   631.01743     -8886.3942     -2204.0317      33312.051      1.0378427      1.3689448    
     18000   635.43152     -8898.3006     -640.02912      33248.717      1.0675179      1.420903     
     19000   615.32994     -8901.21        1746.7088      33141.263      1.1254033      1.4234394    
     20000   619.77014     -8912.0088      2534.1565      33143.741      1.1613387      1.4986562    
     21000   630.44342     -8914.1691      830.26734      33129.014      1.2551251      1.5191232    
     22000   645.63254     -8930.766      -624.9763       33109.52       1.254939       1.5389938    
     23000   628.77187     -8945.2242     -2541.2642      33110.38       1.3079872      1.6178135    
     24000   637.48022     -8946.8702     -1422.7099      33134.526      1.3528476      1.6838236    
     25000   637.83018     -8961.6454     -48.155862      33043.418      1.3752977      1.6706341    
     26000   619.81565     -8963.902      -2197.3315      33050.275      1.4094211      1.7028738    
     27000   617.7767      -8963.1119     -2638.7474      33117.707      1.4336243      1.722913     
     28000   634.02855     -8963.5022      1577.7477      33033.767      1.4205409      1.7886654    
     29000   616.70889     -8966.47        1088.9954      33039.495      1.4031339      1.7696694    
     30000   615.65151     -8973.5614     -2640.9527      33063.901      1.4385311      1.8371181    
     31000   620.24326     -8976.3096      2007.6494      32959.594      1.497989       1.9429107    
     32000   627.56222     -8986.0719     -1581.5433      33032.492      1.5391983      1.9662818    
     33000   616.81723     -8990.1805     -547.27873      32987.566      1.5597192      2.036772     
     34000   622.08062     -8997.8008     -1083.8527      33007.597      1.5778359      2.0872204    
     35000   627.69139     -9001.8622      1088.6071      32920.724      1.6479552      2.1336731    
     36000   615.63959     -9006.5978      2464.7839      32843.007      1.5975096      2.1324528    
     37000   637.39772     -9001.5952      972.3627       32925.806      1.6369223      2.1616523    
     38000   628.84658     -9012.2665     -270.41443      32878.811      1.6490038      2.1258418    
     39000   606.83305     -9015.1497     -486.02781      32859.364      1.6480628      2.232884     
     40000   620.89571     -9010.7054     -2182.7956      32915.697      1.7539982      2.2284191    
     41000   601.83485     -9017.019      -2984.7308      32843.308      1.7086621      2.2821228    
     42000   643.50437     -9018.9752     -4491.5517      32925.375      1.727113       2.3159592    
     43000   605.21879     -9021.5289     -1567.8598      32761.677      1.7462093      2.350923     
     44000   619.36777     -9027.3341     -1769.9147      32828.529      1.7524323      2.3056497    
     45000   596.34434     -9026.2577      291.79616      32739.333      1.7774114      2.3600071    
     46000   632.64145     -9031.7937      212.25869      32784.338      1.8320976      2.4162523    
     47000   632.01561     -9040.4918     -1633.4569      32772.793      1.8749754      2.4258972    
     48000   609.0725      -9048.4944      2861.256       32655.126      1.9275073      2.4491703    
     49000   619.42581     -9043.0199     -369.87997      32716.549      1.887716       2.4205041    
     50000   597.9564      -9047.9099      934.37734      32737.837      1.9018169      2.4078844    
     51000   643.81972     -9044.9928      270.17637      32683.054      1.8932361      2.4850926    
     52000   601.48962     -9041.6042     -862.02735      32703.984      1.9109894      2.4645283    
     53000   641.1398      -9055.6796     -2383.4356      32670.974      1.9648188      2.5120333    
     54000   620.01363     -9050.5232      1120.1564      32640.682      1.9877537      2.5328606    
     55000   612.05284     -9054.5686     -308.37821      32678.624      2.0278591      2.6344076    
     56000   613.34724     -9052.8355      1928.572       32660.762      2.0776672      2.5502553    
     57000   619.36384     -9062.6237      3988.2594      32554.596      2.0832044      2.6038084    
     58000   618.13229     -9064.0575      3400.2204      32585.638      2.1112736      2.6414716    
     59000   625.84303     -9071.3468     -2110.8145      32693.056      2.1046481      2.6850537    
     60000   618.38234     -9072.1233      909.29679      32583.337      2.1005137      2.7101594    
     61000   641.89581     -9075.1102      1953.9858      32569.9        2.147057       2.7398109    
     62000   627.39657     -9076.2444     -2634.1803      32657.713      2.1556424      2.7853351    
     63000   629.57988     -9080.672       1963.0099      32567.424      2.1956962      2.7577413    
     64000   613.062       -9084.0758      673.00861      32607.34       2.1581406      2.7802801    
     65000   606.24758     -9084.6731     -2260.7691      32602.694      2.2139846      2.8329823    
     66000   631.54879     -9083.4036      1959.0569      32598.785      2.2222759      2.8314364    
     67000   605.86764     -9095.7286      387.35244      32536.25       2.2180733      2.8519467    
     68000   628.62242     -9080.458      -2043.35        32660.285      2.2163641      2.8376407    
     69000   604.62278     -9084.1603     -3996.9078      32649.765      2.2585156      2.8686508    
     70000   631.29945     -9089.2835     -919.15219      32562.717      2.2182433      2.8968985    
     71000   640.97713     -9078.7693      1332.5117      32561.018      2.2866394      2.9846371    
     72000   611.05429     -9088.878       975.8281       32523.791      2.224989       2.9369729    
     73000   611.93597     -9085.7354      4477.0956      32484.471      2.2527869      2.9379487    
     74000   616.27157     -9091.9607      173.31728      32539.808      2.2745565      2.9728242    
     75000   613.55583     -9090.0186     -2579.6072      32558.348      2.2734908      2.9942954    
     76000   624.15475     -9091.4366     -163.39481      32544.651      2.2523681      2.9463126    
     77000   627.59785     -9091.9614      264.12966      32568.569      2.2393241      2.9708705    
     78000   610.54061     -9096.837       210.95056      32505.097      2.2698342      2.9950251    
     79000   622.17924     -9089.9278     -1543.8936      32604.57       2.2955643      3.1139597    
     80000   618.73624     -9093.4379     -1994.5845      32570.688      2.2933791      3.0039099    
     81000   625.43171     -9100.3758      797.36753      32481.107      2.2756136      3.0809481    
     82000   623.33281     -9099.1486      1004.6681      32542.518      2.2772421      3.0551293    
     83000   640.08815     -9099.4935      117.91532      32527.277      2.3726096      3.1102446    
     84000   606.38851     -9102.9095      830.38328      32541.963      2.3875715      3.1697901    
     85000   622.58468     -9102.9701     -962.90691      32552.893      2.393615       3.208424     
     86000   637.58563     -9106.9993      1498.3363      32541.115      2.3910769      3.1961834    
     87000   630.92685     -9113.8916      1005.417       32506.615      2.3950549      3.217008     
     88000   601.0047      -9114.5307     -4204.6117      32594.661      2.4387968      3.2742206    
     89000   634.80183     -9114.6414      620.54879      32534.229      2.4833878      3.255936     
     90000   614.54845     -9119.4086      380.18697      32503.907      2.3898402      3.2681778    
     91000   646.66693     -9118.512       2591.617       32481.806      2.5103688      3.2739936    
     92000   630.7228      -9114.4708     -2368.0759      32529.149      2.4269504      3.2640905    
     93000   612.16219     -9120.9894     -51.12495       32552.112      2.486929       3.2908526    
     94000   635.93967     -9122.5158      2979.7353      32432.863      2.4533477      3.2544036    
     95000   639.9661      -9121.281       4496.023       32489.275      2.4952967      3.3406177    
     96000   644.74989     -9123.7984     -195.43531      32553.535      2.5461724      3.3221069    
     97000   634.88231     -9125.9034      623.67849      32479.097      2.5192674      3.3433941    
     98000   604.70571     -9123.6644     -570.23323      32504.512      2.595744       3.3712264    
     99000   632.66522     -9128.2826     -2986.8377      32508.145      2.6132025      3.3656594    
    100000   632.29959     -9129.585       2664.1976      32430.576      2.6201019      3.3955404    
    101000   639.74654     -9122.9998     -3069.0297      32515.252      2.641802       3.404712     
    102000   629.93789     -9128.922       4789.2583      32379.329      2.6553591      3.4403208    
    103000   626.57487     -9134.874       1929.9506      32409.335      2.6751147      3.5516154    
    104000   624.16917     -9135.0494      1475.4608      32453.084      2.68321        3.5713332    
    105000   630.61176     -9142.0245      1184.4616      32423.475      2.6753277      3.5592146    
    106000   620.85791     -9137.1371     -208.40765      32513.847      2.6836469      3.5659244    
    107000   621.81983     -9133.6509     -2659.5567      32497.708      2.6626852      3.6379676    
    108000   611.37954     -9138.9591     -1887.0736      32442.105      2.6957188      3.6472218    
    109000   615.34268     -9140.0878     -4294.5871      32537.674      2.7624537      3.6560059    
    110000   637.95994     -9139.1462     -3413.5521      32498.059      2.7430449      3.6439538    
    111000   623.28592     -9148.2077     -1054.8818      32439.798      2.7061312      3.6744523    
    112000   604.77029     -9144.2327     -2762.7312      32477.502      2.7581896      3.7540043    
    113000   635.82775     -9152.2604     -241.31555      32433.977      2.7699577      3.718456     
    114000   619.7234      -9146.4035      3247.7017      32353.192      2.7653892      3.7156706    
    115000   609.60661     -9150.5334      2423.224       32440.433      2.7848971      3.823545     
    116000   621.3523      -9155.0428     -1466.5257      32529.532      2.7150106      3.7298421    
    117000   627.55921     -9148.6173     -623.06029      32473.031      2.8390759      3.8103614    
    118000   630.17421     -9162.2174      2177.4176      32407.954      2.7862585      3.8249985    
    119000   612.35115     -9158.1704      1721.1127      32402.56       2.8045943      3.9240755    
    120000   626.3538      -9161.0866      1735.2214      32369.929      2.8344398      3.9780255    
    121000   633.51716     -9172.313      -3900.1263      32477.268      2.8732522      4.0210473    
    122000   632.68591     -9169.1464     -1963.7666      32404.732      2.9528784      4.0494215    
    123000   628.97037     -9173.5152     -343.94634      32350.025      2.8687505      4.0295197    
    124000   633.78813     -9170.4463     -595.94233      32439.274      2.8405744      3.9910331    
    125000   598.62796     -9169.1682     -3773.9639      32456.712      2.8948166      4.0388923    
    126000   650.14808     -9173.3513     -3413.7344      32438.625      2.9194885      4.0659351    
    127000   622.8904      -9173.2312     -1950.6821      32407.213      2.881716       4.0493378    
    128000   623.57691     -9178.6929      1391.0545      32342.947      2.9793418      4.0923626    
    129000   610.46222     -9176.0893      497.29634      32390.144      2.9093061      4.0137924    
    130000   627.92958     -9172.0504      726.20419      32355.338      2.8977849      4.0682827    
    131000   627.78864     -9179.3093     -955.89017      32340.124      2.9824042      4.0930344    
    132000   618.26007     -9178.5068      2770.0645      32294.897      2.943805       4.0968846    
    133000   643.455       -9174.6894      252.71136      32345.535      2.9579844      4.1704916    
    134000   613.45282     -9180.1458      1681.6835      32349.98       2.9704236      4.1939437    
    135000   644.48496     -9180.2213     -2609.5578      32385.897      2.9652369      4.2883869    
    136000   627.18923     -9180.5085      518.84581      32310.182      2.995376       4.2399446    
    137000   644.20061     -9178.8328     -213.7609       32359.931      3.0204796      4.3042226    
    138000   626.04986     -9185.1383     -2935.9765      32390.449      2.9872744      4.2344434    
    139000   644.51521     -9178.6584      31.934878      32291.215      3.0454141      4.2680304    
    140000   619.58705     -9179.3899      1479.4527      32260.099      3.0277457      4.206571     
    141000   610.896       -9183.3781     -4090.7703      32363.43       3.0548652      4.3105181    
    142000   612.93477     -9179.6978      1534.7144      32303.022      3.0891308      4.2956426    
    143000   612.2757      -9180.6123      768.45828      32292.129      3.0978275      4.2585521    
    144000   634.62268     -9187.9601     -1210.0392      32327.367      3.0913171      4.2813567    
    145000   639.12104     -9183.7631      938.36225      32320.333      3.1668358      4.3076373    
    146000   617.33649     -9185.4325      3838.1811      32227.291      3.067382       4.3103576    
    147000   625.64219     -9183.5918      1052.9269      32259.433      3.1530951      4.3507882    
    148000   623.09433     -9188.9926      1237.481       32248.79       3.1112724      4.307867     
    149000   630.07959     -9184.5018     -528.26664      32333.397      3.1705215      4.3651256    
    150000   624.07039     -9192.7473     -233.06928      32305.626      3.109175       4.3170905    
    151000   618.13673     -9186.8193     -5068.3233      32404.706      3.201669       4.436227     
    152000   614.97445     -9192.9765     -54.333238      32299.204      3.2555444      4.4574213    
    153000   639.19938     -9194.616       5512.4018      32218.873      3.2257202      4.4333647    
    154000   638.23491     -9198.4641      2154.244       32281.128      3.1867639      4.4286468    
    155000   666.047       -9196.4108     -1078.2427      32370.205      3.319472       4.4710747    
    156000   623.35314     -9194.4729     -1264.0092      32316.762      3.2274656      4.4598803    
    157000   619.89642     -9192.9475     -3089.2492      32363.069      3.2211325      4.5319316    
    158000   620.64415     -9198.9876      1960.7123      32210.335      3.2443757      4.4987303    
    159000   614.66729     -9200.4849      3383.4306      32223.136      3.2143367      4.4985612    
    160000   637.26127     -9195.5008      685.09218      32236.374      3.2836135      4.5765244    
    161000   635.99283     -9201.0881      3480.7618      32187.783      3.2447481      4.5678531    
    162000   620.71833     -9204.1559      147.70632      32265.834      3.2691009      4.5661865    
    163000   629.35978     -9192.8378     -2212.6612      32332.622      3.2792996      4.6521696    
    164000   624.49837     -9203.3627     -1803.7573      32294.072      3.2533172      4.6405135    
    165000   615.791       -9203.1709      2417.5739      32226.059      3.290826       4.6328204    
    166000   609.14405     -9203.8061      4490.2367      32181.146      3.3322213      4.7522659    
    167000   628.77607     -9204.9954      3149.5509      32162.638      3.2745047      4.6758538    
    168000   615.66134     -9208.6463     -1325.5667      32267.617      3.267557       4.6950022    
    169000   639.15161     -9207.5591     -1191.3965      32298.445      3.238564       4.7169644    
    170000   638.31046     -9209.479       203.52864      32224.97       3.2824056      4.7455167    
    171000   608.24632     -9213.2071     -1809.1375      32254.392      3.3475742      4.8053639    
    172000   639.15796     -9214.4082      3752.0588      32183.175      3.3077899      4.8662457    
    173000   633.86231     -9218.144       1120.1859      32171          3.2703843      4.8669743    
    174000   632.00462     -9218.4268      4100.339       32172.761      3.347471       4.9779364    
    175000   642.06352     -9214.8887      507.42557      32241.78       3.342049       5.0164772    
    176000   618.51779     -9213.7814      1692.4056      32202.715      3.3487839      4.9938679    
    177000   621.51868     -9225.2248     -3046.0739      32277.003      3.341711       4.944012     
    178000   633.50494     -9218.9275     -445.23879      32229.717      3.2678334      4.9039157    
    179000   619.09424     -9218.2816     -3660.5847      32283.606      3.4005955      5.0345459    
    180000   605.20389     -9216.7099      1540.0152      32235.293      3.3337174      5.1017879    
    181000   655.58186     -9215.8872     -619.44531      32229.009      3.2961152      5.0419887    
    182000   615.82277     -9221.3696      1557.4335      32199.334      3.3342761      5.0723234    
    183000   625.1375      -9222.33        2539.9867      32204.642      3.3370054      5.1190865    
    184000   630.00732     -9225.9653      180.37713      32205.862      3.3948924      5.1515368    
    185000   618.4463      -9225.9077     -3112.9662      32266.345      3.3551253      5.1587411    
    186000   618.92284     -9228.5586      540.08834      32180.986      3.3955436      5.1803124    
    187000   615.98839     -9233.3171     -1071.4471      32207.342      3.4320822      5.2676959    
    188000   633.69836     -9232.7002     -3004.5164      32271.251      3.5093598      5.236065     
    189000   616.17197     -9231.3613     -422.38602      32257.964      3.4499946      5.2077244    
    190000   637.95241     -9228.7012     -92.041773      32204.486      3.4631196      5.2026371    
    191000   602.62138     -9232.4118      125.49314      32187.674      3.5071057      5.2535147    
    192000   641.94626     -9231.826       3283.3328      32121.004      3.4635528      5.2673872    
    193000   631.57732     -9237.2394      3187.6221      32080.628      3.4618626      5.3580215    
    194000   658.39008     -9233.8611     -954.4541       32204.126      3.5506888      5.3823731    
    195000   626.26555     -9240.6603     -5111.4371      32198.476      3.5614571      5.3383724    
    196000   596.11355     -9235.9894     -454.18537      32146.484      3.5343007      5.468707     
    197000   632.70352     -9236.1922      1571.4687      32109.791      3.5232927      5.423866     
    198000   633.92089     -9240.5759      15.143204      32146.185      3.602468       5.473831     
    199000   635.34506     -9240.8234      1363.1945      32151.852      3.6636118      5.4833678    
    200000   630.91016     -9243.1735     -677.39385      32170.014      3.5210466      5.4893165    
    201000   615.8193      -9248.1356     -2136.1963      32192.011      3.5768446      5.4900196    
    202000   613.85853     -9241.4316     -3260.1342      32227.51       3.6315591      5.5009905    
    203000   615.74733     -9246.5931      2023.5315      32136.649      3.5401876      5.4547746    
    204000   635.75501     -9240.9273     -1981.9018      32218.923      3.581247       5.5110181    
    205000   635.31103     -9246.3941      1694.9782      32132.105      3.6131036      5.4952364    
    206000   610.24047     -9250.8077      173.7205       32160.623      3.5730999      5.5068153    
    207000   617.06214     -9244.5144     -3170.3889      32198.416      3.5572875      5.5225109    
    208000   632.28024     -9250.1929      3354.4241      32097.649      3.6308464      5.5688371    
    209000   625.75766     -9244.6778      770.88444      32135.747      3.6872879      5.6900625    
    210000   647.91594     -9244.2237     -3867.5856      32266.149      3.6380858      5.6381144    
    211000   623.45851     -9248.3264     -308.50672      32177.16       3.5682848      5.6016407    
    212000   632.35989     -9243.2699      2023.5921      32117.282      3.6594896      5.6176996    
    213000   631.6603      -9249.5748     -1076.8208      32207.805      3.657886       5.6201074    
    214000   613.81946     -9244.0373     -1636.3172      32181.794      3.6623096      5.6461548    
    215000   621.04181     -9248.2293     -1425.0065      32160.536      3.5874866      5.6661102    
    216000   618.21947     -9248.9583      1740.9229      32145.444      3.6714543      5.6808456    
    217000   638.38489     -9248.2469      1165.4635      32135.385      3.5872715      5.6282517    
    218000   622.64639     -9244.7222     -1148.6548      32207.441      3.6955921      5.7244352    
    219000   643.26478     -9250.4529     -1912.2765      32187.102      3.683185       5.7913741    
    220000   634.6152      -9252.8752      5244.6094      32122.564      3.6901218      5.7480225    
    221000   614.45545     -9249.7838      150.44663      32093.367      3.7025571      5.7738153    
    222000   632.8408      -9251.8649     -281.99708      32193.445      3.6996534      5.8346663    
    223000   619.96059     -9251.9917     -736.30694      32148.912      3.7297223      5.958299     
    224000   630.22853     -9252.6057     -17.592092      32158.783      3.6469598      5.8862931    
    225000   617.30816     -9250.5146      2509.5954      32120.537      3.7598134      5.9264824    
    226000   618.72739     -9253.3069     -3858.1153      32253.316      3.7140009      5.9761722    
    227000   630.75161     -9252.8134      2274.1355      32117.79       3.707821       5.9816334    
    228000   572.49987     -9253.1741     -297.26922      32187.473      3.7120069      6.0381529    
    229000   613.06155     -9250.582       104.38981      32151.315      3.7446254      5.9714207    
    230000   608.90711     -9260.7454     -1917.9113      32163.265      3.8419214      5.9972165    
    231000   630.39025     -9256.2982     -1831.7587      32165.745      3.7753016      6.0074269    
    232000   614.74562     -9260.8242      3933.9108      32073.146      3.8221607      6.0203085    
    233000   600.02567     -9254.2064      258.43285      32190.055      3.7263314      6.0020454    
    234000   612.97168     -9250.7308      715.06891      32136.214      3.8858863      6.0866987    
    235000   601.36375     -9254.0966      414.51495      32151.785      3.8151397      6.0359911    
    236000   617.88596     -9265.8606     -1185.2524      32145.26       3.7217417      6.0131974    
    237000   607.93254     -9258.0348     -1395.706       32142.226      3.8764168      6.0243126    
    238000   636.72189     -9261.8452     -487.98116      32143.518      3.7598552      5.9921632    
    239000   629.38663     -9252.8395     -2589.2424      32164.991      3.8054611      6.0882276    
    240000   606.02839     -9257.7567     -4280.1993      32142.736      3.8635207      6.037343     
    241000   622.27991     -9252.6734      2683.251       32098.915      3.8485107      6.0055501    
    242000   610.04896     -9257.8001      1937.5594      32124.583      3.7987304      6.0168646    
    243000   645.44638     -9260.0006     -2144.7911      32166.233      3.8455783      6.072102     
    244000   643.64911     -9259.9184      491.84189      32125.984      3.809607       6.1032086    
    245000   630.45507     -9262.6687      3691.6311      32108.894      3.8230554      6.0171788    
    246000   648.87352     -9260.2581     -2068.5737      32181.819      3.8201825      6.0990429    
    247000   615.48835     -9258.9349     -873.27061      32136.385      3.8394282      6.0434675    
    248000   606.39924     -9265.9082      1242.6591      32092.51       3.830067       6.0370318    
    249000   625.67795     -9259.9074      1520.5162      32131.44       3.8220454      6.101713     
    250000   611.16255     -9268.483       4132.457       32031.807      3.840558       6.0788402    
    251000   640.14339     -9263.4385     -4291.3147      32211.695      3.8403913      6.0731778    
    252000   630.69382     -9266.4983     -2866.3181      32176.208      3.8473729      6.0734527    
    253000   600.99593     -9263.648       4937.6178      32037.875      3.9153642      6.1766696    
    254000   619.3828      -9257.776       1484.7838      32110.187      3.9166687      6.2287959    
    255000   618.58653     -9266.7818     -6292.6549      32224.407      3.9184737      6.1506118    
    256000   636.41496     -9262.382       1.9867553      32089.426      3.8838263      6.0633526    
    257000   632.21        -9264.0248     -2656.5921      32173.97       3.9943483      6.1799771    
    258000   622.10017     -9267.4784     -455.53971      32182.863      3.9741253      6.1625002    
    259000   625.09437     -9261.6967      2632.708       32128.258      3.9563861      6.2359255    
    260000   619.72677     -9265.1332     -271.99604      32128.04       3.9960248      6.3125644    
    261000   652.46736     -9266.1853     -733.73024      32091.91       4.0255905      6.3921887    
    262000   632.26025     -9266.8145     -1905.7362      32129.483      3.9791384      6.3668904    
    263000   599.71171     -9264.5565      3334.1981      32071.891      3.95983        6.2278394    
    264000   599.3796      -9262.7141     -213.30257      32120.849      3.9918359      6.3370251    
    265000   630.2677      -9268.5483      3253.6828      32064.279      4.0533417      6.3564159    
    266000   605.8639      -9267.6683      419.88687      32125.955      4.0101704      6.3231516    
    267000   629.09804     -9270.3546      1106.4066      32093.031      3.9621619      6.3743735    
    268000   614.29983     -9268.8971      1445.7221      32098.099      4.0048688      6.402602     
    269000   631.61757     -9269.7946      4761.1467      32077.506      4.05816        6.3858114    
    270000   630.25323     -9272.4629     -296.57097      32121.195      4.0058227      6.3364286    
    271000   632.39557     -9272.6215      2197.1813      32059.146      4.0168236      6.3895735    
    272000   633.30966     -9273.7764     -770.2646       32085.009      4.0387538      6.3352733    
    273000   645.11996     -9272.056       625.2611       32086.454      4.0873327      6.5073167    
    274000   627.41968     -9281.9573      1375.231       32011.051      4.095103       6.4882636    
    275000   633.41049     -9282.1906     -2697.77        32134.623      4.1116334      6.4308764    
    276000   625.95948     -9273.2646     -360.67856      32084.492      4.2219263      6.5125853    
    277000   621.37901     -9280.3424     -1941.3076      32078.732      4.1098781      6.5067897    
    278000   631.94766     -9285.6833     -1392.3621      32036.689      4.0583678      6.4386713    
    279000   623.3968      -9285.3375      1076.2132      32113.269      4.1329944      6.5167761    
    280000   621.74139     -9286.2628     -3499.5346      32108.314      4.1360403      6.4798081    
    281000   624.11243     -9285.4082     -482.47649      32049.387      4.180836       6.5283201    
    282000   626.80676     -9288.3574      4055.3265      31958.627      4.1951547      6.5434006    
    283000   630.8843      -9289.274      -2916.0006      32077.842      4.1771561      6.5584006    
    284000   617.28628     -9293.4737     -431.93581      32033.743      4.1754484      6.5990235    
    285000   603.87796     -9288.7871     -1458.3897      32078.687      4.0336298      6.5421131    
    286000   640.95912     -9283.6619      184.07643      32030.741      4.1024779      6.5641138    
    287000   624.36728     -9291.0676     -3175.641       32032.222      4.2061765      6.6143897    
    288000   622.38654     -9287.8839      625.13911      31990.528      4.1242376      6.678494     
    289000   624.24014     -9294.3261     -94.929039      31999.98       4.0988863      6.5727826    
    290000   623.58788     -9289.2746     -535.80983      31984.368      4.0934012      6.7354138    
    291000   620.72808     -9295.7861     -5090.5951      32056.658      4.1388527      6.7037802    
    292000   638.75502     -9288.8919     -519.14052      31971.249      4.1681527      6.7242147    
    293000   621.4116      -9291.8792      3801.3048      31893.176      4.1361072      6.6933118    
    294000   615.07625     -9286.9626      35.470454      31965.959      4.1665754      6.687529     
    295000   620.74071     -9288.0053     -4008.0786      32077.886      4.1126739      6.8254122    
    296000   620.66198     -9287.6661     -582.60372      32011.722      4.102826       6.6654262    
    297000   613.76347     -9292.0602      1333.9668      31978.367      4.2472776      6.7351137    
    298000   623.36146     -9289.8715      1846.3676      31901.813      4.1419418      6.6674608    
    299000   611.7029      -9292.7278     -3737.8377      32037.445      4.0695971      6.6856642    
    300000   631.65087     -9296.4207      1262.165       31943.12       4.1533106      6.6452113    
    301000   636.29798     -9290.6632     -1991.6059      32039.872      4.16368        6.7417951    
    302000   627.21526     -9291.4247     -1412.3668      31994.264      4.246807       6.6871258    
    303000   618.92259     -9295.7211     -267.7052       32008.336      4.1501016      6.6984595    
    304000   616.00222     -9290.6004      632.2576       31993.061      4.1801133      6.7165393    
    305000   629.50746     -9294.0947     -1049.6739      31970.719      4.1949715      6.7097372    
    306000   617.11957     -9300.2504      2440.2347      31903.036      4.2121799      6.7247058    
    307000   617.15962     -9294.696      -2128.9278      32019.148      4.2211192      6.725874     
    308000   609.86344     -9295.6798     -4797.6214      32036.133      4.1460061      6.7253093    
    309000   627.25485     -9288.48        1574.0825      31950.079      4.139972       6.748756     
    310000   630.15298     -9293.7117     -243.22218      31925.925      4.1728074      6.6934543    
    311000   639.2292      -9290.5972     -1459.234       32008.887      4.2367579      6.7432644    
    312000   623.43        -9292.7071     -971.44592      32014.511      4.1253725      6.7280512    
    313000   628.57555     -9294.7332      1414.731       31940.988      4.2335333      6.8031423    
    314000   618.10145     -9291.8275      1011.4065      32025.251      4.1864751      6.8307802    
    315000   609.35542     -9294.152       1711.7419      31935.308      4.2358078      6.8095959    
    316000   617.32819     -9291.2066      927.54083      32005.595      4.2032736      6.7999464    
    317000   629.00433     -9289.9828     -4573.348       32077.195      4.2210353      6.7736836    
    318000   625.2814      -9293.4552     -311.70344      32020.492      4.2210974      6.8130661    
    319000   631.92978     -9295.1508      227.28857      31973.996      4.2522774      6.7320463    
    320000   637.62072     -9296.0749      1581.7274      31941.62       4.2587046      6.7613239    
    321000   623.44092     -9289.6402      569.31225      32013.96       4.3010135      6.864589     
    322000   612.84709     -9289.323      -1361.9467      32057.179      4.2090234      6.7882696    
    323000   612.0243      -9292.8356     -73.112997      31997.737      4.2530651      6.7958034    
    324000   621.16402     -9295.4638      144.68327      31985.97       4.2657639      6.900244     
    325000   618.4963      -9297.3215      1359.5225      31946.473      4.2306982      6.8976989    
    326000   634.21771     -9292.5486      4490.0663      31908.602      4.2053651      6.8855826    
    327000   651.66559     -9295.4308     -3510.7852      32028.261      4.2879592      6.9765948    
    328000   626.45953     -9294.1028     -326.89299      31993.118      4.2866144      6.9145259    
    329000   637.78397     -9297.7241     -100.40588      31962.387      4.2481214      6.8269521    
    330000   622.34035     -9300.1678      3310.8233      31909.489      4.1577925      6.8569427    
    331000   644.01398     -9297.2845     -2182.9715      32050.607      4.2680519      6.9224477    
    332000   599.71036     -9296.3254      1802.0351      31959.668      4.2191254      6.9208891    
    333000   621.33027     -9293.8951     -241.25879      32008.746      4.2290557      6.8505055    
    334000   639.80761     -9301.004       3323.6947      31948.012      4.2166989      6.9191914    
    335000   618.39884     -9289.0322      6751.0092      31903.122      4.2058057      6.973804     
    336000   631.84479     -9294.5888      5092.215       31885.478      4.2137041      6.8952751    
    337000   623.64347     -9294.6882     -2575.9858      32043.403      4.1837667      6.8791099    
    338000   634.98587     -9296.545      -159.77925      31982.784      4.2509431      7.0071059    
    339000   626.23417     -9303.1109      1513.4542      31904.425      4.2546073      6.9176388    
    340000   622.7157      -9292.8351     -225.05959      31981.75       4.2009529      6.9717061    
    341000   610.46384     -9294.4521      1782.6349      31958.626      4.2004155      7.0004981    
    342000   637.36351     -9293.5175      3240.6789      31945.305      4.2784448      6.9483243    
    343000   619.78455     -9298.5478     -2107.9661      32001.603      4.2361105      6.8893396    
    344000   639.34853     -9297.2357     -1468.6887      31976.875      4.22008        6.879255     
    345000   629.41676     -9295.5693     -1965.8416      32043.131      4.2896758      6.9906334    
    346000   613.18192     -9296.6457      1605.213       31959.403      4.2549128      6.834951     
    347000   624.85343     -9293.7421     -1298.1857      32025.62       4.2926789      6.9337086    
    348000   622.66102     -9299.1923      369.08397      31924.801      4.2516433      6.9597457    
    349000   612.15971     -9292.3332     -3529.1558      32051.391      4.2954835      6.9443692    
    350000   618.15512     -9299.9358      3709.7736      31946.425      4.251708       6.928883     
    351000   634.1668      -9295.6333     -1564.5299      31992.234      4.2817341      6.9677338    
    352000   614.48161     -9300.0961     -2599.1222      32040.669      4.3504302      6.9472267    
    353000   609.65865     -9295.8617      340.68566      32015.313      4.3082854      6.9382378    
    354000   625.60038     -9300.3997     -2756.7835      32001.833      4.3041449      7.0045408    
    355000   628.61203     -9297.4878      2405.4095      31898.503      4.355571       6.941899     
    356000   618.44287     -9302.964       2466.5006      31920.165      4.2471813      6.9691618    
    357000   624.80084     -9302.7551      3449.0712      31891.878      4.3124983      6.9689813    
    358000   626.39563     -9297.577      -2326.4867      32026.619      4.3713724      7.0738221    
    359000   608.7402      -9303.9127      4131.8053      31912.079      4.2947416      7.014795     
    360000   628.09539     -9304.29        484.85765      31890.756      4.2713413      6.9643205    
    361000   636.7555      -9301.6096      112.21188      32005.411      4.2903219      6.9628374    
    362000   611.82496     -9303.9833      419.32911      31942.814      4.3503166      6.9731638    
    363000   629.80792     -9303.2342      2081.4082      31924.843      4.3027577      6.9933692    
    364000   619.62558     -9294.9103     -33.062339      32004.147      4.3579625      7.0509207    
    365000   628.5992      -9300.9765     -1558.4103      32007.54       4.3908887      7.0699403    
    366000   615.26327     -9301.998      -811.45548      31977.711      4.2996646      7.0621495    
    367000   625.24787     -9296.3603      3355.3983      31938.784      4.3984725      6.9733077    
    368000   613.79643     -9303.7683      839.68884      31976.1        4.4289936      7.0744798    
    369000   624.07107     -9300.8714     -456.47363      31963.922      4.3814712      7.0520144    
    370000   632.48386     -9300.7247      746.18145      31957.109      4.4011435      7.0397132    
    371000   590.68226     -9297.001       1646.9411      31951.649      4.376236       7.0270421    
    372000   624.19326     -9302.5586     -2419.9837      31953.364      4.2829801      6.995977     
    373000   619.07484     -9299.0132     -534.75627      31954.194      4.3604602      7.0198132    
    374000   644.3657      -9305.535       1306.8566      31930.391      4.3713196      7.01329      
    375000   618.65218     -9303.8179      101.2873       31978.197      4.3111244      6.954156     
    376000   650.2794      -9303.0016      3742.3964      31882.58       4.3962259      7.0519658    
    377000   630.81218     -9306.1535     -2784.9462      32016.667      4.3334592      6.9930818    
    378000   623.09169     -9297.9733      3112.0482      31946.288      4.324466       6.9919456    
    379000   605.615       -9301.4571      679.19448      31931.052      4.4620393      7.0224126    
    380000   621.16024     -9297.8007      14.748783      31966.767      4.3550082      6.9833465    
    381000   612.97936     -9301.4883     -1797.0152      31973.04       4.3055166      7.0315005    
    382000   620.34657     -9294.2346      3173.0919      31928.158      4.4201292      7.0727008    
    383000   604.63541     -9302.4366      723.37084      31991.978      4.3428728      7.0407758    
    384000   623.2334      -9300.9416      1878.9236      31947.582      4.3503189      7.0086842    
    385000   641.44955     -9306.1116     -1469.944       31994.368      4.486223       7.1136928    
    386000   617.99257     -9304.6066      475.39821      31972.141      4.3742553      7.057062     
    387000   608.73675     -9302.0462     -406.48051      32015.28       4.3723474      7.0342349    
    388000   647.10826     -9302.0439      5186.9748      31896.782      4.4145989      6.999641     
    389000   607.6619      -9304.1824      267.52673      31994.156      4.4169758      7.1612761    
    390000   627.91699     -9303.4121      1018.6119      31941.007      4.3816431      7.0045317    
    391000   622.80916     -9300.5262     -3901.5079      32040.277      4.4447784      7.0118928    
    392000   629.14745     -9306.6822     -529.36631      32018.663      4.4258281      7.1517234    
    393000   625.68099     -9306.5285     -1840.8983      32005.173      4.4375311      7.104594     
    394000   628.7046      -9303.3128      3141.3768      31978.514      4.4213171      7.0920366    
    395000   622.43879     -9307.5017      5162.4256      31850.787      4.3889167      6.9710785    
    396000   627.94485     -9302.3864      1030.8015      31940.235      4.3764264      7.1268111    
    397000   616.66979     -9306.1409      752.87505      31927.61       4.4282015      7.0423022    
    398000   616.49553     -9299.5196     -1602.0636      31990.348      4.4836701      7.1037213    
    399000   606.6882      -9305.6135      4527.4656      31875.993      4.3693514      7.0385504    
    400000   637.74089     -9304.8201      395.17665      31937.018      4.4338183      7.0792671    
    401000   650.02281     -9307.5588     -1122.7229      31968.951      4.4166571      7.113283     
    402000   638.6027      -9307.8926      1806.9781      31925.72       4.3498561      6.9822588    
    403000   646.4004      -9310.0315     -1972.9791      32013.532      4.3683678      7.0074633    
    404000   625.77735     -9308.0509     -2418.9196      32012.661      4.4277166      6.9813849    
    405000   639.02308     -9304.5808     -987.65525      32005.051      4.4131354      7.0980167    
    406000   633.47112     -9311.0703      1478.6386      31950.938      4.4423718      7.0501892    
    407000   614.24229     -9311.7234      270.51593      31978.045      4.3994915      6.9827363    
    408000   629.63059     -9307.0788      2042.3996      31986.513      4.3602106      7.0014968    
    409000   621.43658     -9309.1566      3191.1621      31929.226      4.4163847      7.057571     
    410000   624.82608     -9309.7791      4636.3496      31933.073      4.4608068      7.0136691    
    411000   610.69225     -9311.5605      2024.4374      31949.973      4.285639       6.9806083    
    412000   627.33834     -9305.3797     -768.76784      32040.977      4.4321794      6.9844799    
    413000   636.05783     -9303.9275     -4042.2996      32075.741      4.3936454      7.0554493    
    414000   621.94703     -9303.4171     -5580.441       32091.999      4.4279962      7.1265395    
    415000   622.51579     -9309.3502      4124.762       31927.102      4.3540817      7.0093009    
    416000   638.82438     -9310.2373      1997.0337      31963.948      4.3772762      7.0375241    
    417000   622.18336     -9306.6326     -3676.9522      32032.245      4.3830437      7.1492865    
    418000   616.06415     -9311.4862     -899.50422      32041.355      4.4236515      7.1241125    
    419000   632.50843     -9311.0572     -2368.6887      32035.618      4.409153       6.9984847    
    420000   634.09364     -9307.2419      2566.6444      31960.383      4.3849895      7.0445395    
    421000   621.60941     -9311.2461      799.00711      32014.358      4.3491173      7.0719885    
    422000   627.35182     -9308.773       2611.0325      31976.995      4.3805098      7.0062782    
    423000   615.08481     -9312.3742     -419.17448      32057.038      4.4012574      7.1323408    
    424000   640.44004     -9309.8201      2141.9409      31964.478      4.390244       7.0033304    
    425000   611.14983     -9308.701       544.46247      32039.452      4.3755835      7.1272353    
    426000   611.05101     -9306.8416     -1247.033       32030.49       4.4065947      7.0815546    
    427000   624.65105     -9310.3336      1203.4392      32002.224      4.3940855      7.0553528    
    428000   602.07798     -9308.9032     -1995.4254      32037.958      4.3828753      7.1382136    
    429000   638.56752     -9310.9856     -13.997898      32036.026      4.3960981      7.1300567    
    430000   587.4417      -9306.7278     -5907.6067      32113.821      4.4437602      7.1475039    
    431000   640.06005     -9307.8211      2498.269       31978.825      4.3342078      7.1107839    
    432000   638.24372     -9312.9531      4032.1128      31967.454      4.3304124      7.0463079    
    433000   620.10602     -9316.4879     -614.30951      32013.015      4.3361378      7.0920783    
    434000   622.3241      -9308.0359     -816.70456      32016.872      4.3817074      7.0691954    
    435000   623.03001     -9310.6947     -1877.429       32010.529      4.3573137      7.0731342    
    436000   633.02958     -9310.2584     -825.30576      32024.154      4.26622        7.0582126    
    437000   615.0556      -9310.5933     -444.47201      32031.209      4.3678841      7.117589     
    438000   621.78485     -9310.6014     -3630.4008      32051.205      4.4076562      7.0974583    
    439000   619.86822     -9310.6361     -4039.3741      32071.285      4.441772       7.0768402    
    440000   644.46944     -9307.6204      6071.1117      31900.159      4.3522549      7.0730532    
    441000   616.41337     -9311.0166     -989.31978      32050.315      4.4450391      7.0580838    
    442000   618.88474     -9312.0117     -2161.4288      32067.662      4.3263268      7.1226988    
    443000   646.19815     -9311.3764     -23.370679      32031.653      4.37663        7.0622001    
    444000   617.20952     -9311.5478      2694.6802      31961.226      4.3795658      7.1102077    
    445000   615.22151     -9310.9209     -1380.7916      32030.765      4.385058       7.119042     
    446000   641.83085     -9309.4217     -2503.1372      32070.919      4.4476381      7.1252317    
    447000   622.92776     -9313.6198     -5417.1738      32099.715      4.3912427      7.0897249    
    448000   627.60355     -9311.9122     -3634.9858      32068.196      4.3351376      7.0795255    
    449000   600.45199     -9313.5395     -708.37713      32018.271      4.4317208      7.1147484    
    450000   617.09609     -9309.5735     -1266.8761      32027.202      4.3803213      7.0896841    
    451000   615.44105     -9310.5288      3319.9208      31933.812      4.3787474      7.1326321    
    452000   636.20345     -9309.6781      1436.1391      31994.747      4.3285275      7.1132617    
    453000   618.78591     -9311.5216     -1177.7742      31988.46       4.3872083      7.057698     
    454000   607.75123     -9316.0139      1659.3554      31961.097      4.3295502      7.1322333    
    455000   627.09937     -9310.9376     -6083.7679      32131.851      4.3899681      7.1117062    
    456000   606.78035     -9309.6864      650.30062      31968.162      4.3828972      7.0823709    
    457000   613.65954     -9310.5072      903.18502      31983.728      4.4152181      7.1807835    
    458000   629.94369     -9306.2755      217.53756      32001.1        4.3981622      7.1399343    
    459000   606.31077     -9308.8953      3409.3415      32002.268      4.3771035      7.0879911    
    460000   628.59745     -9310.625      -2576.384       32034.121      4.3730377      7.1377942    
    461000   626.89725     -9310.6374     -900.37194      32069.254      4.4061617      7.1339132    
    462000   612.41498     -9315.6268      2800.2027      31939.476      4.3590393      7.0322467    
    463000   620.96589     -9308.6695      2464.1155      31982.747      4.3500424      7.1029116    
    464000   618.79935     -9312.0082     -1876.0394      31993.982      4.4129681      7.0756091    
    465000   624.83862     -9310.6765      4847.7638      31905.282      4.4065495      7.1245993    
    466000   599.16486     -9308.7487     -1640.6515      32028.054      4.4330678      7.076316     
    467000   623.55378     -9308.7429      3637.9286      31930.069      4.4060685      7.1028288    
    468000   630.43711     -9316.2464      1328.9941      31948.928      4.2980886      7.0922635    
    469000   633.7087      -9311.29       -4590.8818      32071.923      4.3787079      7.1065989    
    470000   627.75159     -9315.3229     -580.9777       32029.457      4.3415822      7.0708738    
    471000   617.613       -9316.2638      1316.1613      31943.823      4.3126893      7.0293413    
    472000   629.88233     -9309.7695      1993.1114      32018.567      4.3908533      7.1150432    
    473000   616.95414     -9309.9547      675.82007      31992.672      4.395386       7.1807435    
    474000   632.29428     -9308.7194     -6221.6725      32105.314      4.3815457      7.0286371    
    475000   624.92285     -9310.2426     -1451.6808      32055.135      4.2966386      7.0536143    
    476000   609.07514     -9306.4641      56.1549        32013.879      4.4067766      7.1029438    
    477000   637.5006      -9306.8971     -5918.3189      32119.171      4.3575799      7.1413198    
    478000   621.60251     -9309.6909      225.73818      31974.04       4.433287       7.1352424    
    479000   614.83648     -9318.7734     -77.571058      32007.407      4.3993259      7.0954901    
    480000   624.37095     -9314.1607      100.86875      32030.714      4.3514788      6.9963418    
    481000   609.1333      -9314.7474      1330.0769      31985.591      4.4072802      7.176669     
    482000   624.0076      -9311.1699     -1167.1057      31973.581      4.5318804      7.1609531    
    483000   648.99149     -9317.3106      999.984        31994.818      4.3263788      7.043169     
    484000   617.80563     -9312.5484      3005.6594      31962.373      4.366373       7.0904223    
    485000   645.22232     -9313.2255      2434.0715      31975.876      4.3604204      7.0747399    
    486000   613.65615     -9316.4024      502.18016      31939.278      4.3474701      7.0760469    
    487000   636.88199     -9315.7883     -4970.9177      32037.243      4.4637032      7.1419799    
    488000   643.4884      -9309.9188     -457.93592      32028.639      4.3919516      7.1731339    
    489000   621.58918     -9313.2996     -171.75569      31955.822      4.305728       7.0146975    
    490000   630.68197     -9314.7471      1278.7109      31932.802      4.4851887      7.0514211    
    491000   625.77009     -9305.0953      2150.5054      31941.188      4.3816215      7.0822609    
    492000   620.53454     -9309.8383      98.674795      31979.549      4.3328972      7.0903914    
    493000   612.12228     -9312.3326      1175.5538      31949.973      4.4356131      7.2208289    
    494000   619.7594      -9308.6053      265.8313       31973.704      4.4428232      7.1564988    
    495000   618.4688      -9313.8442      4100.3208      31938.995      4.4250769      7.117344     
    496000   635.81572     -9315.4598      1041.4313      31953.861      4.4612313      7.1342071    
    497000   644.46475     -9314.5047      3676.2023      31935.801      4.4100134      7.1503034    
    498000   645.96926     -9316.3255     -1686.5363      31989.768      4.4610653      7.0891608    
    499000   596.44083     -9315.819      -1663.5552      31924.827      4.3393557      7.0530583    
    500000   620.80564     -9319.0009     -3785.6114      32001.112      4.3781435      7.1093011    
    501000   637.85185     -9317.6173      872.87681      31936.524      4.4866321      7.0560019    
    502000   605.3362      -9318.5293     -553.1085       31963.48       4.3495887      7.1484885    
    503000   627.25344     -9315.7561     -2118.6369      32008.513      4.4895268      7.0961322    
    504000   650.20107     -9312.7283     -897.38368      32004.13       4.4725838      7.0878988    
    505000   626.73484     -9315.8906      2928.9886      31915.53       4.4227907      7.1261896    
    506000   619.92559     -9313.1389     -395.63306      31940.505      4.3629863      7.0345333    
    507000   607.9299      -9311.9077     -1792.2216      31995.209      4.4417457      7.1023149    
    508000   600.3923      -9315.5253      506.35438      31965.258      4.5328487      7.1591206    
    509000   641.33625     -9319.5944     -2431.5629      31998.334      4.3854032      7.1077788    
    510000   610.35635     -9317.6024     -4309.4812      32032.814      4.4423533      7.0780939    
    511000   623.98631     -9319.257       1333.0373      31913.696      4.5302154      7.1021563    
    512000   612.20481     -9309.1992     -2314.9073      32032.526      4.468416       7.154593     
    513000   595.18817     -9315.4959      878.98485      31987.836      4.466887       7.1090559    
    514000   629.57095     -9317.6679      2581.8966      31915.484      4.4428339      7.0565482    
    515000   599.35581     -9314.9188     -5039.0935      32134.024      4.4682812      7.0888748    
    516000   652.12022     -9317.6544     -3087.2383      32053.92       4.5092733      7.1539346    
    517000   625.80379     -9318.8081      450.99689      31968.366      4.4715292      7.039906     
    518000   628.77088     -9314.8064     -3557.3197      32041.608      4.4539993      7.1561269    
    519000   612.65909     -9318.4711      2757.1631      31903.709      4.4818886      7.1288847    
    520000   620.13516     -9313.9032     -3520.5235      32027.027      4.560582       7.1808598    
[...]
   1818000   626.9914      -9453.875       1819.9186      31598.573      6.4460672      11.172694    
   1819000   612.27362     -9452.413       1420.2839      31565.774      6.5027354      11.186194    
   1820000   635.89424     -9456.8295      3173.381       31559.29       6.5268438      11.172908    
   1821000   621.09878     -9452.4264      1123.4414      31574.986      6.4757094      11.134455    
   1822000   631.81402     -9452.8111     -3296.5178      31659.942      6.5045162      11.056234    
   1823000   595.18114     -9450.1879     -609.36817      31712.779      6.3999692      11.174275    
   1824000   631.53049     -9452.4947     -504.68885      31621.713      6.4555836      11.095118    
   1825000   610.315       -9456.939       1785.919       31625.57       6.4150313      11.112746    
   1826000   616.77192     -9456.6926     -394.2287       31587.655      6.4375562      11.199222    
   1827000   619.78187     -9449.7343     -476.73364      31639.181      6.4755666      10.999377    
   1828000   631.57202     -9453.9708     -343.29715      31614.485      6.5154361      11.085264    
   1829000   630.3316      -9456.8047     -1105.9332      31653.338      6.5427543      11.157671    
   1830000   601.5379      -9451.5279     -12.495087      31633.383      6.6135605      11.09117     
   1831000   650.76146     -9453.3627      2396.5231      31587.321      6.4686235      11.054115    
   1832000   621.88722     -9456.2506      2458.2787      31533.968      6.458363       11.061091    
   1833000   630.29666     -9449.4068      2787.7183      31567.788      6.4882899      11.048328    
   1834000   613.90641     -9454.8266      268.00844      31629.464      6.4365901      11.143126    
   1835000   620.34309     -9458.7324      1964.1359      31586.168      6.5125958      11.147616    
   1836000   612.90484     -9448.178      -641.20733      31618.917      6.499187       11.024691    
   1837000   627.82924     -9450.3983     -4774.4997      31719.784      6.4821098      11.182835    
   1838000   619.139       -9448.5376     -106.26733      31609.883      6.5275737      11.091195    
   1839000   624.78847     -9459.4431      1668.9907      31556.738      6.4269544      11.17718     
   1840000   620.41522     -9454.6787     -2242.8754      31674.076      6.4942303      11.134066    
   1841000   618.17138     -9456.2531     -1235.483       31639.123      6.4846237      11.170932    
   1842000   636.98347     -9455.8511     -1615.6077      31629.773      6.4724581      11.145313    
   1843000   608.61895     -9460.1358     -1004.1254      31605.516      6.4540786      11.200717    
   1844000   640.90666     -9455.4442      245.76679      31603.697      6.4897468      11.201845    
   1845000   608.41384     -9455.474       1283.5023      31566.733      6.4994049      11.125718    
   1846000   624.18171     -9451.7589      2057.422       31572.178      6.5247442      11.168205    
   1847000   607.57531     -9455.5475     -249.57329      31583.758      6.5273245      11.176562    
   1848000   631.31439     -9458.5719      786.19007      31570.526      6.3988002      11.016001    
   1849000   639.74275     -9452.6648      740.16615      31597.658      6.4423311      11.141495    
   1850000   629.98228     -9452.1893      2416.2114      31575.171      6.5360521      11.128752    
   1851000   632.97931     -9452.7523     -1735.9422      31664.734      6.5252272      11.184846    
   1852000   625.51939     -9457.133       2426.0642      31575.781      6.5577874      11.103071    
   1853000   604.23892     -9457.4549     -1820.7081      31646.832      6.42287        11.113966    
   1854000   635.18206     -9455.4996      2377.4362      31602.311      6.516018       11.109862    
   1855000   629.30347     -9456.7156      2434.4108      31558.07       6.5189674      11.09022     
   1856000   614.49962     -9448.3709      2942.6046      31572.561      6.4574537      11.101563    
   1857000   611.46276     -9453.9532      657.93334      31554.936      6.4294289      11.124593    
   1858000   621.14285     -9452.3202      319.21868      31625.876      6.4647962      11.089078    
   1859000   616.62744     -9455.7924     -840.90926      31594.588      6.5548137      11.165633    
   1860000   634.11172     -9451.6489      3571.1101      31545.928      6.5376542      11.216249    
   1861000   627.05499     -9455.086       832.10674      31594.176      6.4927841      11.18082     
   1862000   615.07469     -9455.4041      656.31661      31605.014      6.5634087      11.151911    
   1863000   639.73276     -9452.9771     -5563.2238      31657.049      6.4848013      11.181022    
   1864000   641.47911     -9451.9275      5762.1285      31523.167      6.4939617      11.148491    
   1865000   607.79032     -9454.218       3346.6848      31515.893      6.5341181      11.135826    
   1866000   617.50262     -9456.6773     -1721.9365      31627.734      6.4951625      11.07271     
   1867000   629.79077     -9450.1206     -1118.7476      31626.952      6.5136311      11.172984    
   1868000   638.38123     -9451.2646      1097.3019      31603.719      6.5354368      11.211436    
   1869000   628.69912     -9455.4788     -3043.9645      31622.322      6.4807905      11.128859    
   1870000   623.58044     -9451.3305     -1191.3262      31690.472      6.5039316      11.240045    
   1871000   610.92594     -9450.052       1435.5015      31609.013      6.5787286      11.322456    
   1872000   609.65411     -9453.8056      341.58853      31627.035      6.4866143      11.241824    
   1873000   620.38983     -9454.0688      563.99365      31615.799      6.5082646      11.119151    
   1874000   625.63202     -9454.9834     -4864.1389      31693.547      6.5459657      11.216463    
   1875000   633.97791     -9457.6764     -1081.6728      31586.756      6.5472597      11.262659    
   1876000   617.65872     -9457.108      -883.6906       31666.882      6.5517252      11.244085    
   1877000   621.87754     -9452.9054     -4257.1687      31669.992      6.5177724      11.271221    
   1878000   616.30636     -9458.5066      1005.0551      31574.551      6.5278807      11.175592    
   1879000   638.23166     -9455.1638     -1994.6363      31593.709      6.5552173      11.342285    
   1880000   623.89368     -9461.274      -1831.4719      31622.68       6.5742996      11.177475    
   1881000   631.56926     -9458.5364      4932.626       31506.925      6.4661148      11.255944    
   1882000   613.53817     -9459.3644      9.8185125      31591.542      6.6414656      11.298598    
   1883000   624.39174     -9457.0784      3076.2063      31610.418      6.6820594      11.335599    
   1884000   622.70518     -9460.9462     -2047.5371      31590.006      6.4866706      11.417033    
   1885000   621.49511     -9462.4904      1284.8463      31569.325      6.5993749      11.28278     
   1886000   629.79818     -9464.6714     -3430.3784      31635.446      6.5951708      11.408576    
   1887000   643.46679     -9455.893      -824.39158      31587.453      6.6167655      11.239623    
   1888000   615.55384     -9460.7347     -955.2152       31603.97       6.5275976      11.368316    
   1889000   617.02937     -9460.4379      3015.3738      31552.177      6.599585       11.309356    
   1890000   645.31744     -9462.3235      1006.1285      31603.267      6.6209959      11.337175    
   1891000   613.6393      -9462.7713      520.1698       31593.447      6.5666086      11.332359    
   1892000   630.618       -9458.5792     -2038.1186      31613.046      6.6380807      11.410335    
   1893000   629.07716     -9450.8475      3924.7171      31573.705      6.6236237      11.308177    
   1894000   609.05075     -9458.6659      2777.8222      31567.015      6.6321297      11.505671    
   1895000   612.05271     -9464.9256      2908.9986      31492.419      6.7270235      11.474366    
   1896000   634.05655     -9458.9844     -2675.1376      31678.993      6.5977447      11.317815    
   1897000   616.90796     -9466.552       587.35465      31625.208      6.498869       11.430079    
   1898000   629.06546     -9459.9062     -1173.0053      31648.481      6.5731916      11.445081    
   1899000   614.79507     -9454.3291     -620.21362      31615.35       6.5935872      11.421823    
   1900000   638.26736     -9460.0161      478.06757      31593.29       6.6372005      11.459994    
   1901000   620.08368     -9460.537       1799.9641      31576.814      6.6173479      11.3612      
   1902000   620.78652     -9457.5969     -179.61067      31604.517      6.5479742      11.416932    
   1903000   613.31642     -9461.5205      2254.5606      31545.677      6.5639329      11.500089    
   1904000   617.47399     -9464.0946     -11.531951      31627.193      6.594737       11.434696    
   1905000   624.12301     -9462.8076     -2035.6115      31622.481      6.5673495      11.405001    
   1906000   620.94001     -9456.0963     -7229.344       31721.212      6.4820385      11.488301    
   1907000   618.6091      -9463.8069      3155.3249      31528.843      6.5278715      11.358264    
   1908000   619.23706     -9463.7026     -1187.1194      31639.297      6.6739384      11.530696    
   1909000   627.48469     -9464.5078     -1281.7009      31614.884      6.5431112      11.622439    
   1910000   634.6436      -9462.727      -1506.0697      31608.213      6.5981172      11.508614    
   1911000   645.85811     -9465.6711      2344.1203      31523.837      6.5888163      11.518278    
   1912000   605.91086     -9464.9395     -1368.596       31597.27       6.4699676      11.464554    
   1913000   613.40094     -9462.7066     -1658.8616      31581.209      6.5418791      11.408668    
   1914000   618.6273      -9463.1095     -4098.1018      31613.515      6.6351881      11.493292    
   1915000   619.00293     -9461.2686      2445.1801      31563.539      6.5246025      11.652843    
   1916000   601.6939      -9464.1442      3778.3886      31530.962      6.6603065      11.548561    
   1917000   618.90701     -9465.2864     -980.86285      31558.894      6.5405406      11.470603    
   1918000   626.50703     -9464.7545     -156.51138      31544.131      6.6952944      11.639583    
   1919000   622.65462     -9463.6913      247.14679      31576.672      6.6247827      11.519248    
   1920000   625.00632     -9469.1315     -2190.2758      31601.932      6.6302453      11.689686    
   1921000   619.28322     -9466.6023     -1184.5567      31580.767      6.6282146      11.654107    
   1922000   618.45747     -9463.6584     -3942.2593      31606.727      6.6479887      11.562403    
   1923000   617.74653     -9464.2098     -165.45665      31549.99       6.6234333      11.67587     
   1924000   615.29594     -9465.2204     -4056.7373      31614.981      6.7500951      11.619985    
   1925000   615.28577     -9461.2321      473.10086      31572.612      6.5447697      11.566381    
   1926000   611.34911     -9466.4985     -1709.3737      31589.881      6.6395153      11.578915    
   1927000   636.96605     -9466.1661      289.94177      31520.81       6.6585521      11.560385    
   1928000   603.9382      -9466.2175     -2809.3451      31592.247      6.7319944      11.625158    
   1929000   614.55779     -9469.1269     -1583.0496      31550.847      6.703537       11.660589    
   1930000   628.0908      -9467.2848      2155.7292      31533.176      6.6933259      11.609207    
   1931000   606.1004      -9467.3097     -419.0902       31580.597      6.7708171      11.642174    
   1932000   629.29719     -9464.3498      5278.7644      31502.885      6.569647       11.666142    
   1933000   630.50962     -9466.0652     -5315.0518      31657.341      6.7240602      11.625106    
   1934000   615.31053     -9464.1027      1878.8845      31525.083      6.6762076      11.658613    
   1935000   617.55027     -9467.6871      717.71578      31533.502      6.7044667      11.591378    
   1936000   634.80847     -9469.3791      4006.6264      31483.174      6.754776       11.605232    
   1937000   620.33661     -9472.364       1000.3973      31550.545      6.728461       11.70722     
   1938000   623.05414     -9465.849      -347.30794      31559.104      6.728431       11.654158    
   1939000   629.78345     -9471.8007      1967.4894      31506.605      6.7149557      11.569682    
   1940000   626.83742     -9464.9003     -1209.0745      31600.127      6.6574042      11.551348    
   1941000   609.22418     -9471.5375     -5344.9247      31625.313      6.8634762      11.756605    
   1942000   627.99608     -9467.3802     -2757.7217      31597.57       6.7314659      11.65172     
   1943000   627.49612     -9469.5548      1162.9798      31535.192      6.7503095      11.613334    
   1944000   629.67964     -9471.1458      2183.4895      31528.242      6.7530287      11.743073    
   1945000   632.82037     -9466.5321     -1539.9498      31608.22       6.7970692      11.642956    
   1946000   634.34005     -9466.1601      2928.0956      31524.216      6.81013        11.631359    
   1947000   598.96206     -9472.7024     -2219.3692      31552.233      6.8050989      11.657413    
   1948000   604.18241     -9463.6772      1129.6473      31509.598      6.7366246      11.600159    
   1949000   616.92378     -9468.5644     -975.47719      31542.299      6.7284904      11.705258    
   1950000   635.5661      -9464.4453      750.24027      31548.077      6.8071549      11.641738    
   1951000   620.7191      -9469.6416     -2907.3452      31619.509      6.7327369      11.681941    
   1952000   619.9824      -9471.9464      2320.5718      31518.38       6.6679921      11.660178    
   1953000   624.55508     -9468.6621      1119.4494      31547.259      6.7362867      11.533161    
   1954000   616.93784     -9469.8841     -315.23496      31567.413      6.7310231      11.67646     
   1955000   605.00032     -9472.8348     -4648.0524      31589.346      6.7910357      11.601185    
   1956000   627.45516     -9471.0665      1613.6506      31557.857      6.7450653      11.564913    
   1957000   632.00059     -9469.4951      1533.8764      31508.52       6.6829479      11.609872    
   1958000   630.16545     -9471.2887      3288.771       31453.557      6.7474482      11.666492    
   1959000   638.3001      -9472.3729      516.21713      31512.362      6.750656       11.72873     
   1960000   621.1236      -9471.4805      301.99965      31520.498      6.7350589      11.602503    
   1961000   603.55271     -9471.2343     -828.73315      31544.165      6.7615379      11.629915    
   1962000   618.41233     -9467.0963      2511.1925      31505.319      6.7442449      11.66982     
   1963000   623.90813     -9467.1815      1149.3046      31540.525      6.7569991      11.625743    
   1964000   619.80769     -9470.0637     -4049.5806      31611.52       6.690669       11.647744    
   1965000   645.43897     -9468.4202      4028.9009      31505.965      6.6354383      11.612839    
   1966000   624.25765     -9470.6983      2926.2942      31512.933      6.7582245      11.659853    
   1967000   630.11847     -9469.2736      2941.6654      31497.57       6.7202312      11.583256    
   1968000   619.30777     -9469.3457      2772.3102      31532.836      6.6858929      11.724488    
   1969000   604.2298      -9474.568       1375.1608      31507.804      6.6964256      11.637       
   1970000   626.50752     -9468.8599     -1268.7069      31576.293      6.720347       11.666373    
   1971000   632.24289     -9471.4541      213.23377      31537.989      6.6913554      11.670129    
   1972000   618.84075     -9468.2445      911.45114      31552.584      6.7331776      11.62449     
   1973000   620.29824     -9473.9091     -3411.2708      31589.046      6.7150102      11.618536    
   1974000   627.92814     -9466.5197      2909.9115      31498.705      6.7037188      11.681457    
   1975000   612.72081     -9470.3982     -1371.2993      31579.515      6.7492958      11.599467    
   1976000   625.59033     -9468.5911     -1202.1253      31607.234      6.6758445      11.660929    
   1977000   618.67658     -9471.2787     -2787.0862      31583.451      6.8060991      11.72198     
   1978000   632.38413     -9463.9299      1238.5076      31573.94       6.7326779      11.73638     
   1979000   622.04616     -9472.9506      3198.5681      31517.071      6.7341392      11.575217    
   1980000   625.3044      -9472.7648     -1556.5902      31567.28       6.7628582      11.692581    
   1981000   607.99753     -9469.2624     -1235.1636      31616.576      6.8646015      11.81811     
   1982000   643.61358     -9470.6058     -784.16613      31558.689      6.7862335      11.753694    
   1983000   624.56945     -9472.0094      1799.3087      31550.295      6.6438137      11.648528    
   1984000   622.17598     -9469.7156      3146.4807      31523.494      6.6617926      11.573882    
   1985000   609.63021     -9472.3937      569.36551      31575.177      6.7377875      11.689914    
   1986000   626.27202     -9475.0727      1294.7268      31525.7        6.7224421      11.696687    
   1987000   635.57006     -9475.9176     -2844.2015      31591.842      6.7610089      11.656356    
   1988000   610.85188     -9472.9089     -1099.5575      31581.828      6.7941555      11.688148    
   1989000   600.03382     -9464.5999     -2978.5788      31605.761      6.8550761      11.782499    
   1990000   625.902       -9477.4166      1166.1657      31553.138      6.8133557      11.687634    
   1991000   628.69038     -9470.8198     -3554.8865      31608.323      6.8448902      11.818456    
   1992000   625.41862     -9471.6        -2420.3521      31589.765      6.7701645      11.7411      
   1993000   608.83404     -9474.3953     -1601.0474      31540.497      6.7998608      11.79367     
   1994000   611.13299     -9474.741       1303.1238      31500.675      6.7658086      11.819004    
   1995000   600.47179     -9470.3834     -1201.041       31607.887      6.735162       11.705286    
   1996000   621.09146     -9474.2297     -2120.5527      31578.661      6.8171381      11.621854    
   1997000   599.83048     -9474.6468      1650.8464      31547.516      6.6248577      11.768428    
   1998000   615.41873     -9470.6998      2154.3479      31510.948      6.7922172      11.718148    
   1999000   604.68735     -9478.5978      816.53804      31555.176      6.7747575      11.797454    
   2000000   621.12487     -9473.8693     -596.24094      31621.025      6.8723267      11.861706    
Loop time of 23252.6 on 16 procs for 2000000 steps with 1810 atoms

Performance: 7.431 ns/day, 3.230 hours/ns, 86.012 timesteps/s, 155.681 katom-step/s
100.0% CPU use with 4 MPI tasks x 4 OpenMP threads

MPI task timing breakdown:
Section |  min time  |  avg time  |  max time  |%varavg| %total
---------------------------------------------------------------
Pair    | 13310      | 18160      | 22992      |3543.3 | 78.10
Neigh   | 13.53      | 14.24      | 14.995     |  18.6 |  0.06
Comm    | 201.67     | 5033.6     | 9884.2     |6730.3 | 21.65
Output  | 0.33442    | 0.41324    | 0.63391    |  19.8 |  0.00
Modify  | 37.803     | 38.093     | 38.497     |   4.6 |  0.16
Other   |            | 5.78       |            |       |  0.02

Nlocal:          452.5 ave         469 max         436 min
Histogram: 1 0 1 0 0 0 0 1 0 1
Nghost:        1476.75 ave        1506 max        1441 min
Histogram: 1 0 0 1 0 0 0 0 1 1
Neighs:              0 ave           0 max           0 min
Histogram: 4 0 0 0 0 0 0 0 0 0
FullNghs:        22527 ave       24536 max       20700 min
Histogram: 2 0 0 0 0 0 0 0 1 1

Total # of neighbors = 90108
Ave neighs/atom = 49.783425
Neighbor list builds = 11715
Dangerous builds = 0

undump          1
unfix           2
Total wall time: 6:32:37
