LAMMPS (22 Jul 2025)
  using 4 OpenMP thread(s) per MPI task
units           metal
dimension       3
boundary        p p p
atom_style      atomic

timestep        0.001

read_data       Ti_aSi_PBC.data
Reading data file ...
  orthogonal box = (0 0 0) to (27.344798 27.344798 49.225544)
  1 by 2 by 2 MPI processor grid
  reading atoms ...
  1810 atoms
  read_data CPU = 0.010 seconds

group           si_atoms type 1
730 atoms in group si_atoms
group           ti_atoms type 2
1080 atoms in group ti_atoms

mass            1 28.0855  # Si
mass            2 47.867   # Ti

pair_style      tersoff
pair_coeff      * * TSCBOP.tersoff Si Ti

neighbor        2.0 bin
neigh_modify    delay 0 every 1 check yes

thermo          100
thermo_style    custom step temp pe press vol
minimize        1.0e-6 1.0e-8 1000 10000
Neighbor list info ...
  update: every = 1 steps, delay = 0 steps, check = yes
  max neighbors/atom: 2000, page size: 100000
  master list distance cutoff = 5.8838
  ghost atom cutoff = 5.8838
  binsize = 2.9419, bins = 10 10 17
  1 neighbor lists, perpetual/occasional/extra = 1 0 0
  (1) pair tersoff, perpetual
      attributes: full, newton on
      pair build: full/bin/atomonly
      stencil: full/bin/3d
      bin: standard
Per MPI rank memory allocation (min/avg/max) = 6.867 | 6.869 | 6.872 Mbytes
   Step          Temp          PotEng         Press          Volume    
         0   0             -7969.1457      40203.497      36807.809    
        87   0             -8335.5906     -53567.848      36807.809    
Loop time of 1.57498 on 16 procs for 87 steps with 1810 atoms

99.9% CPU use with 4 MPI tasks x 4 OpenMP threads

Minimization stats:
  Stopping criterion = energy tolerance
  Energy initial, next-to-last, final = 
     -7969.14569514739  -8335.58602839426  -8335.59060682912
  Force two-norm initial, final = 124.35609 6.2350718
  Force max component initial, final = 16.796723 1.6158869
  Final line search alpha, max atom move = 0.069187373 0.11179897
  Iterations, force evaluations = 87 163

MPI task timing breakdown:
Section |  min time  |  avg time  |  max time  |%varavg| %total
---------------------------------------------------------------
Pair    | 0.46765    | 1.0196     | 1.5648     |  53.1 | 64.74
Neigh   | 0.0020797  | 0.0023527  | 0.0026437  |   0.5 |  0.15
Comm    | 0.0053592  | 0.54999    | 1.1014     |  72.2 | 34.92
Output  | 0          | 0          | 0          |   0.0 |  0.00
Modify  | 0          | 0          | 0          |   0.0 |  0.00
Other   |            | 0.003042   |            |       |  0.19

Nlocal:          452.5 ave         495 max         407 min
Histogram: 2 0 0 0 0 0 0 0 0 2
Nghost:         1332.5 ave        1386 max        1280 min
Histogram: 1 1 0 0 0 0 0 0 1 1
Neighs:              0 ave           0 max           0 min
Histogram: 4 0 0 0 0 0 0 0 0 0
FullNghs:        19981 ave       24065 max       15804 min
Histogram: 2 0 0 0 0 0 0 0 0 2

Total # of neighbors = 79924
Ave neighs/atom = 44.156906
Neighbor list builds = 3
Dangerous builds = 0
reset_timestep  0

velocity        all create 300.0 12345 dist gaussian
fix             1 all npt temp 300.0 300.0 0.1 iso 0.0 0.0 1.0

run             30000
Per MPI rank memory allocation (min/avg/max) = 5.742 | 5.744 | 5.747 Mbytes
   Step          Temp          PotEng         Press          Volume    
         0   300           -8335.5906     -51532.196      36807.809    
       100   270.70958     -8338.5871      4670.6411      34849.168    
       200   356.6282      -8355.253       1984.3879      34956.136    
       300   391.14073     -8378.8492     -328.86806      34876.92     
       400   388.34699     -8397.7373     -35.571321      34867.808    
       500   389.64138     -8418.7594      221.20845      34850.95     
       600   387.69834     -8438.3583      494.96242      34699.653    
       700   378.0089      -8457.4747      558.91707      34640.523    
       800   364.74219     -8474.7115     -838.96917      34633.419    
       900   340.85059     -8487.5115     -2645.1489      34624.787    
      1000   336.74442     -8502.7631      92.471287      34485.177    
      1100   330.08635     -8515.9812     -233.57752      34453.17     
      1200   313.32724     -8525.2743     -1061.793       34434.765    
      1300   312.66425     -8537.7867      261.06017      34434.386    
      1400   302.76012     -8546.3279      677.97651      34435.189    
      1500   306.16495     -8555.3024      334.94349      34360.607    
      1600   307.23524     -8562.7965      2731.1837      34328.821    
      1700   292.93149     -8565.431      -2066.3865      34351.376    
      1800   293.53652     -8569.3022      258.69882      34307.697    
      1900   293.93698     -8571.9494      651.9066       34378.343    
      2000   299.13253     -8575.172       2444.41        34324.889    
      2100   296.31369     -8576.3138     -310.5596       34358.951    
      2200   305.48226     -8579.4466      1308.4296      34335.219    
      2300   302.77568     -8581.3465      508.14583      34325.533    
      2400   297.07077     -8582.3235     -135.63973      34345.094    
      2500   298.16602     -8585.0325      1146.0861      34301.21     
      2600   295.87174     -8587.5775     -276.02548      34342.572    
      2700   296.28997     -8591.0765     -1686.1948      34383.402    
      2800   302.17748     -8595.6365      1925.3477      34308.179    
      2900   297.75247     -8596.5435      1514.5546      34295.765    
      3000   296.42132     -8596.2771     -688.93829      34307.251    
      3100   308.78609     -8598.1205      1222.5489      34289.043    
      3200   311.28455     -8600.0308     -2394.4297      34342.656    
      3300   307.20603     -8603.2651     -257.82512      34308.951    
      3400   295.70901     -8606.2765      1403.9137      34352.98     
      3500   295.7817      -8609.7601      1350.1397      34281.931    
      3600   289.56852     -8609.2128      1002.4441      34291.771    
      3700   304.2771      -8611.5846     -2865.3421      34323.117    
      3800   311.67656     -8612.5004      533.5819       34268.891    
      3900   303.36873     -8613.8127      93.868478      34319.583    
      4000   304.53614     -8619.1635     -1612.8162      34270.41     
      4100   298.83113     -8622.55       -1688.9604      34252.515    
      4200   302.02413     -8625.5739     -2155.4404      34266.212    
      4300   298.11925     -8625.6466     -1008.3728      34265.647    
      4400   302.55193     -8626.3371     -332.3012       34212.135    
      4500   301.7468      -8625.8122      2102.8627      34214.344    
      4600   310.53966     -8629.4208     -2681.2164      34277.536    
      4700   293.53218     -8628.7692      75.205324      34152.465    
      4800   295.94506     -8632.8641     -456.29799      34267.048    
      4900   300.0897      -8635.7265     -2540.2859      34242.063    
      5000   295.73709     -8636.1568      1302.6147      34199.721    
      5100   302.22061     -8638.1739      2176.9543      34218.954    
      5200   306.97808     -8639.3256      1990.7382      34141.262    
      5300   302.86908     -8639.8817     -2414.6436      34249.362    
      5400   296.84727     -8641.0849     -762.22078      34203.822    
      5500   295.74882     -8642.6013      37.551055      34183.164    
      5600   297.33556     -8642.7085     -1875.3435      34225.881    
      5700   299.77643     -8641.2165     -1153.907       34192.108    
      5800   299.67071     -8640.5346     -1116.7313      34246.786    
      5900   306.94688     -8644.9848     -1141.3959      34199.627    
      6000   310.64141     -8648.5616      2217.1004      34154.042    
      6100   302.25129     -8649.0839      2251.5779      34167.941    
      6200   293.40552     -8649.233      -451.29689      34215.228    
      6300   305.93481     -8653.1097     -1259.8757      34231.893    
      6400   295.91221     -8651.676       372.55914      34181.909    
      6500   291.57323     -8653.7337     -1577.3263      34220.559    
      6600   287.63818     -8653.8883     -676.20116      34174.996    
      6700   302.45906     -8655.2959      493.81537      34169.005    
      6800   306.15095     -8652.9438      651.1624       34159.984    
      6900   312.65298     -8652.3119     -1538.9957      34170.492    
      7000   303.58001     -8654.9572     -3193.118       34186.951    
      7100   303.60945     -8657.2914     -783.56264      34180.626    
      7200   301.09423     -8659.3095      774.34862      34124.451    
      7300   300.60331     -8660.0139      4.6584097      34128.336    
      7400   307.85682     -8661.5447     -3828.1431      34186.651    
      7500   302.25888     -8661.7227     -1445.5954      34108.735    
      7600   300.1602      -8663.1723      521.66033      34075.979    
      7700   295.34299     -8663.9977     -97.418629      34102.652    
      7800   295.80561     -8662.9841     -1192.5759      34128.443    
      7900   303.40361     -8661.63        1887.1518      34132.306    
      8000   309.0314      -8663.9362      1085.9437      34089.396    
      8100   303.79434     -8665.8456      1608.5377      34093.271    
      8200   296.95701     -8666.0427      3305.8454      34054.124    
      8300   299.84749     -8668.1012     -1850.8225      34115.491    
      8400   294.00303     -8667.8144     -121.74518      34102.192    
      8500   298.58298     -8669.339       349.76077      34102.336    
      8600   302.23271     -8668.6443      1594.4729      34062.151    
      8700   304.64321     -8666.514       2.8274664      34076.863    
      8800   306.30308     -8666.8365     -1641.8562      34136.799    
      8900   305.20431     -8669.4211     -576.43724      34089.439    
      9000   300.53973     -8669.5815      1370.3139      34080.84     
      9100   301.00783     -8669.3678      852.93973      34112.933    
      9200   309.91418     -8670.5047     -3721.3506      34151.076    
      9300   305.63335     -8668.6438     -384.89388      34078.462    
      9400   301.63515     -8669.6012     -1336.7035      34152.047    
      9500   303.61394     -8672.7841      4753.6203      34001.259    
      9600   304.27194     -8674.2464     -836.57145      34050.56     
      9700   298.83017     -8673.6626     -5689.9175      34146.604    
      9800   294.76791     -8673.3932     -2730.0713      34075.613    
      9900   298.13175     -8675.3023     -2806.3786      34079.97     
     10000   298.86108     -8675.4728     -1970.3443      34103.481    
     10100   301.28964     -8674.82        1050.2168      34030.932    
     10200   305.21397     -8674.3306     -1103.1762      34065.755    
     10300   299.77243     -8672.7359     -1972.3371      34092.944    
     10400   305.49611     -8677.2385      1017.8521      34086.671    
     10500   301.00762     -8678.4915      4555.2849      33989.476    
     10600   294.40372     -8677.67       -2292.5252      34118.485    
     10700   293.69232     -8676.8635      1256.7648      34032.135    
     10800   309.6872      -8677.9452     -1396.7853      34079.603    
     10900   308.00825     -8676.1581      355.21267      34076.505    
     11000   308.15942     -8679.3027      619.68825      34080.67     
     11100   295.89853     -8678.4458      1476.1587      34086.201    
     11200   302.96113     -8680.3416      1468.614       34054.223    
     11300   294.78357     -8678.635      -653.71409      34079.174    
     11400   304.68673     -8680.2584     -1867.3703      34103.619    
     11500   304.91532     -8680.7418      739.72339      34111.245    
     11600   298.36938     -8682.655       2570.1427      34014.015    
     11700   293.60143     -8684.3413     -715.80072      34111.171    
     11800   302.19467     -8688.149      -3158.2343      34078.004    
     11900   297.2856      -8689.1123      821.64452      34075.554    
     12000   297.86552     -8690.386       2280.4343      34006.021    
     12100   296.03482     -8689.9816     -531.61568      34052.186    
     12200   304.33571     -8690.3552     -120.31734      34073.488    
     12300   316.01287     -8692.2963     -1183.4725      34061.425    
     12400   307.86576     -8693.0462     -213.93451      34058.953    
     12500   300.46697     -8693.7051      525.86139      34033.431    
     12600   301.97023     -8694.2849      3582.4388      34017.095    
     12700   300.57009     -8694.0815      1148.8189      34048.356    
     12800   297.54955     -8695.1964      354.80261      34053.879    
     12900   291.47313     -8696.1668     -3372.4832      34083.285    
     13000   296.3811      -8696.4969     -961.03412      34036.245    
     13100   294.36047     -8692.8706      668.66764      34059.432    
     13200   302.05958     -8693.9215      5.1100101      34038.595    
     13300   301.21653     -8694.8683      1459.1435      34040.617    
     13400   300.02796     -8696.3697      213.37792      34007.508    
     13500   292.26241     -8695.6126      2984.8836      33988.193    
     13600   297.10774     -8696.419      -2354.49        34048.76     
     13700   307.81206     -8696.1437     -804.84788      34037.469    
     13800   310.47705     -8696.1729      2922.7975      33986.231    
     13900   308.1833      -8699.0245      363.13898      34049.204    
     14000   307.34237     -8701.4321     -342.55571      34041        
     14100   298.04104     -8701.4787     -1019.8994      33998.232    
     14200   292.92282     -8701.8788     -97.237646      34059.913    
     14300   296.44231     -8703.1358      578.09966      34010.096    
     14400   293.85051     -8701.5232      1096.104       34025.027    
     14500   304.03415     -8700.9567     -3110.8762      34054.863    
     14600   307.14312     -8702.0661      971.62184      33993.062    
     14700   301.14701     -8703.5277     -799.89507      34072.515    
     14800   302.16907     -8704.9306      2711.2564      33963.381    
     14900   301.33324     -8704.7801     -1170.3495      34028.502    
     15000   296.91876     -8703.8943     -202.52145      34019.014    
     15100   296.04851     -8704.9669      890.93297      33980.422    
     15200   299.31441     -8708.0411      1249.0699      33982.744    
     15300   295.67565     -8708.329      -837.98333      34034.835    
     15400   299.35086     -8708.4754      407.04952      33993.544    
     15500   306.80189     -8707.7349     -1161.2729      34059.658    
     15600   311.61491     -8708.4484     -387.24423      34024.184    
     15700   306.11577     -8711.2204      1762.1544      33938.519    
     15800   298.43322     -8711.2846      1099.4981      34010.837    
     15900   300.58479     -8712.3144      635.57717      34023.442    
     16000   300.52336     -8713.2178     -44.581794      33978.911    
     16100   299.88827     -8715.5219      242.7072       33960.396    
     16200   292.87547     -8715.5253      323.56916      34007.912    
     16300   301.42843     -8715.3624     -1692.8255      34002.397    
     16400   303.8979      -8714.4143     -2646.0649      33999.657    
     16500   301.89748     -8713.5331      1024.8024      33966.777    
     16600   296.08735     -8712.6613     -409.98053      33987.151    
     16700   301.37531     -8715.9822     -899.15458      34000.88     
     16800   291.27518     -8715.5068      1212.8199      33967.595    
     16900   296.34953     -8716.0187     -475.15048      33993.244    
     17000   303.85553     -8713.6385     -1117.2946      34001.12     
     17100   307.6095      -8713.8914      369.22776      33987.893    
     17200   305.05579     -8715.4252      3198.8181      33914.425    
     17300   295.70731     -8715.733      -1383.7392      33984.524    
     17400   295.81649     -8715.9458     -2284.2558      34057.95     
     17500   303.56292     -8716.848       1970.3231      33997.513    
     17600   311.96835     -8716.1133      4401.7466      33921.748    
     17700   313.49215     -8715.4177     -313.06078      34041.348    
     17800   305.25916     -8717.3253      1042.4611      33978.61     
     17900   296.85663     -8716.9429     -1096.9332      34011.486    
     18000   299.06405     -8718.0566     -810.53754      34014.651    
     18100   299.50689     -8718.3425     -718.66629      33987.328    
     18200   299.04387     -8717.0276      1256.3463      33991.513    
     18300   311.70015     -8717.6128     -623.43112      34003.818    
     18400   305.04905     -8715.7796      1129.0558      33967.91     
     18500   298.95466     -8717.7177     -1980.439       33995.289    
     18600   296.09064     -8718.8649     -4326.7556      34071.995    
     18700   303.82657     -8720.1094     -254.58765      33984.881    
     18800   302.49859     -8718.7332     -732.16791      33966.344    
     18900   296.70978     -8715.4515      450.53722      34031.797    
     19000   315.16918     -8717.5111      2227.6481      33945.493    
     19100   304.86193     -8718.0665      2335.7748      33960.768    
     19200   305.03947     -8719.832       743.39978      33971.97     
     19300   292.21365     -8718.0986     -1012.4333      34032.722    
     19400   302.84977     -8720.682       766.32294      33986.855    
     19500   302.79741     -8720.3421      1093.5784      33971.985    
     19600   306.16112     -8719.3095      183.00228      33987.829    
     19700   306.14092     -8717.77       -365.83532      33995.398    
     19800   299.24732     -8717.6218     -3751.0565      34052.52     
     19900   294.96888     -8719.5984     -1615.4346      33999.22     
     20000   295.55152     -8720.2543      3057.3117      33952.132    
     20100   295.90937     -8720.46       -2665.4284      34015.403    
     20200   304.883       -8721.4331     -105.72361      33991.381    
     20300   307.41301     -8719.465       1003.2958      33949.004    
     20400   309.0589      -8716.9575      935.62907      33989.084    
     20500   308.27169     -8719.5865     -1219.2667      33993.386    
     20600   307.12773     -8721.5133     -283.9548       33960.529    
     20700   294.35084     -8720.4938     -2466.2537      34005.298    
     20800   298.91485     -8722.3793      1166.4852      33931.771    
     20900   297.29601     -8721.7978      3586.543       33918.02     
     21000   308.47281     -8722.8153     -2591.1257      33986.603    
     21100   305.47021     -8721.3983     -1501.7403      34008.365    
     21200   307.21647     -8723.3351      548.23757      33908.375    
     21300   299.6818      -8724.593      -1019.3934      33987.553    
     21400   294.6495      -8723.645       163.80907      33973.593    
     21500   295.35734     -8721.9543      187.59942      33935.381    
     21600   305.55084     -8721.8814      3009.8593      33920.404    
     21700   307.7729      -8722.3992      872.3172       33920.286    
     21800   299.32139     -8721.3854     -3804.4854      34058.141    
     21900   300.06471     -8722.7405      1649.6175      33907.798    
     22000   307.95628     -8726.417       1618.0907      33925.45     
     22100   298.83591     -8726.1838     -998.717        33961.874    
     22200   295.78672     -8725.37        995.30048      33939.429    
     22300   298.15535     -8725.756       31.0449        33986.422    
     22400   293.64015     -8724.4614     -955.87367      33953.306    
     22500   301.69446     -8725.4373      1158.2603      33873.776    
     22600   294.75321     -8724.3209      123.04142      33932.007    
     22700   306.78108     -8727.1823     -2868.3403      33978.462    
     22800   306.06756     -8726.8928     -47.028055      33927.493    
     22900   294.96255     -8725.2196     -1071.8675      33917.53     
     23000   299.20249     -8728.6452     -674.98313      33957.432    
     23100   293.30662     -8728.6926     -231.30673      33893.281    
     23200   299.14903     -8728.2874     -124.96412      33929.053    
     23300   303.34017     -8726.6464      2227.0412      33935.966    
     23400   313.44304     -8728.9041     -803.31712      33937.76     
     23500   296.08832     -8726.1421     -1882.305       33953.317    
     23600   299.01375     -8728.8744     -737.53424      33955.452    
     23700   302.26598     -8730.8743      1304.3544      33890.91     
     23800   300.27743     -8731.1401     -1027.6943      33958.678    
     23900   296.86233     -8732.151       1280.7723      33905.822    
     24000   288.0234      -8732.8947     -1416.1247      33932.827    
     24100   297.89087     -8734.3676     -2881.7266      33929.246    
     24200   305.87512     -8733.1291      2079.61        33888.709    
     24300   302.4273      -8732.0897     -1532.4561      33918.09     
     24400   302.96059     -8732.9055     -3313.4955      34005.029    
     24500   301.63264     -8734.7303      2483.6662      33860.719    
     24600   297.42778     -8735.9314     -698.53166      33905.603    
     24700   294.15788     -8734.9419     -85.994689      33921.658    
     24800   306.53831     -8733.7561      748.48472      33901.988    
     24900   312.86586     -8734.063      -2409.2596      33971.048    
     25000   303.58221     -8733.7421      1089.5536      33894.537    
     25100   295.24793     -8734.4006      2241.4745      33870.515    
     25200   295.11134     -8734.623      -3958.1674      33947.676    
     25300   295.92876     -8733.7239     -204.40512      33913.773    
     25400   300.56292     -8732.1731      1533.487       33856.505    
     25500   302.22512     -8729.7395     -443.63616      33946.379    
     25600   302.99755     -8732.324      -2470.6585      33919.64     
     25700   293.85665     -8733.6506     -1857.5488      33945.428    
     25800   294.06425     -8734.2638     -2526.0788      33941.715    
     25900   303.60601     -8735.6111     -893.23756      33904.375    
     26000   305.18844     -8735.0591     -739.31191      33922.274    
     26100   298.07037     -8733.0346     -334.50557      33912.597    
     26200   306.87267     -8735.1163     -1653.4715      33911.771    
     26300   296.27972     -8734.6482      256.90858      33904.25     
     26400   291.77334     -8735.4974     -92.852985      33880.448    
     26500   295.9947      -8735.359      -2179.3644      33922.912    
     26600   303.43339     -8733.6128      801.08645      33913.381    
     26700   305.37865     -8733.702       1707.7382      33905.962    
     26800   299.38736     -8733.8733     -2622.443       33940.957    
     26900   297.75388     -8735.5         417.05421      33905.656    
     27000   296.89657     -8736.3014      1120.6942      33901.65     
     27100   296.40206     -8736.0013     -882.60063      33920.944    
     27200   298.49085     -8736.4041      1146.8189      33881.145    
     27300   301.27645     -8736.8237     -2011.0913      33981.34     
     27400   300.18372     -8736.526      -1041.5407      33947.638    
     27500   303.16161     -8737.0556      3811.9641      33863.46     
     27600   299.1302      -8736.1574      1998.7394      33886.1      
     27700   303.17908     -8737.2332     -1161.0453      33931.952    
     27800   298.75356     -8736.8361     -1642.1372      33911.115    
     27900   297.82334     -8738.9661      1583.9458      33880.395    
     28000   301.19498     -8740.9994      58.578233      33890.611    
     28100   306.09861     -8740.1868     -466.3379       33897.796    
     28200   297.40429     -8735.9773     -392.48014      33868.394    
     28300   309.75142     -8738.2486     -2164.616       33939.123    
     28400   305.30719     -8738.3597     -185.37874      33865.333    
     28500   302.82028     -8739.1542     -1366.4656      33901.008    
     28600   298.3825      -8739.0737     -511.63576      33878.738    
     28700   301.47194     -8740.315      -2309.2895      33907.476    
     28800   301.62391     -8739.6879     -1073.4057      33938.533    
     28900   300.65845     -8737.1287      3124.9478      33831.604    
     29000   299.08156     -8735.7511      552.63922      33894.825    
     29100   303.16733     -8738.2713      1318.5802      33892.771    
     29200   301.6927      -8740.9465      1376.715       33862.431    
     29300   296.024       -8740.3932     -137.77955      33896.631    
     29400   296.07335     -8739.3458      1643.1245      33917.302    
     29500   300.85688     -8738.8394      486.70985      33905.129    
     29600   305.06345     -8737.4288      64.390784      33918.704    
     29700   307.5708      -8738.0398     -108.62976      33908.121    
     29800   301.01488     -8740.4898      1914.6366      33866.218    
     29900   295.24641     -8740.7083     -825.06537      33866.596    
     30000   288.21013     -8739.8457     -4312.2636      33981.815    
Loop time of 319.286 on 16 procs for 30000 steps with 1810 atoms

Performance: 8.118 ns/day, 2.956 hours/ns, 93.960 timesteps/s, 170.067 katom-step/s
100.0% CPU use with 4 MPI tasks x 4 OpenMP threads

MPI task timing breakdown:
Section |  min time  |  avg time  |  max time  |%varavg| %total
---------------------------------------------------------------
Pair    | 133.34     | 224.72     | 314.04     | 595.2 | 70.38
Neigh   | 0.09921    | 0.10193    | 0.10484    |   0.7 |  0.03
Comm    | 4.2922     | 93.585     | 184.94     | 922.1 | 29.31
Output  | 0.0034882  | 0.016471   | 0.054938   |  17.3 |  0.01
Modify  | 0.69501    | 0.72581    | 0.7519     |   2.4 |  0.23
Other   |            | 0.1361     |            |       |  0.04

Nlocal:          452.5 ave         479 max         429 min
Histogram: 2 0 0 0 0 0 0 0 1 1
Nghost:        1394.75 ave        1411 max        1383 min
Histogram: 1 0 1 0 1 0 0 0 0 1
Neighs:              0 ave           0 max           0 min
Histogram: 4 0 0 0 0 0 0 0 0 0
FullNghs:        21200 ave       24151 max       18466 min
Histogram: 2 0 0 0 0 0 0 0 0 2

Total # of neighbors = 84800
Ave neighs/atom = 46.850829
Neighbor list builds = 109
Dangerous builds = 0

unfix           1
reset_timestep  0

compute         msd_si si_atoms msd
compute         msd_ti ti_atoms msd
compute         pe_atom all pe/atom
compute         ke_atom all ke/atom

thermo_style    custom step temp pe press vol c_msd_si[4] c_msd_ti[4]
thermo          1000

dump            1 all custom 10000 dump.anneal.lammpstrj id type x y z vx vy vz c_pe_atom c_ke_atom

fix             2 all npt temp 300.0 623.15 0.1 iso 0.0 0.0 1.0

run             200000
Per MPI rank memory allocation (min/avg/max) = 6.992 | 6.997 | 7.001 Mbytes
   Step          Temp          PotEng         Press          Volume      c_msd_si[4]    c_msd_ti[4]  
         0   288.21013     -8739.8457     -4312.2636      33981.815      2.2296465e-32  2.5750397e-34
      1000   311.31718     -8741.5614     -689.37855      33903.374      0.034124119    0.071068001  
      2000   315.41285     -8747.283      -912.99741      33892.127      0.035653271    0.086798736  
      3000   308.01167     -8753.0656      2700.582       33802.936      0.052077203    0.10721107   
      4000   303.79396     -8755.6575     -1450.6089      33863.502      0.063753691    0.1264494    
      5000   313.91436     -8757.2781     -797.49755      33856.778      0.068341544    0.15515669   
      6000   304.37077     -8756.9309     -448.67518      33870.601      0.077973044    0.15935824   
      7000   320.13748     -8761.0508      2374.3077      33846.712      0.079786287    0.17618091   
      8000   314.39198     -8773.802       1131.7194      33766.424      0.13635731     0.2263492    
      9000   310.21122     -8783.3602     -2100.9907      33824.581      0.16226415     0.27867907   
     10000   315.62491     -8787.9758      295.95078      33808.754      0.18013708     0.30788879   
     11000   317.39922     -8793.9636      1524.9565      33741.644      0.20854432     0.33773853   
     12000   309.30381     -8797.7678     -930.39902      33725.322      0.20820587     0.37881384   
     13000   322.11417     -8808.4617      649.91565      33712.131      0.22690564     0.41103004   
     14000   319.1819      -8803.7589      750.27877      33714.893      0.22879675     0.39640859   
     15000   326.80217     -8809.3153     -353.98307      33774.707      0.24720791     0.42919423   
     16000   324.62073     -8812.4495     -1646.8166      33771.56       0.25798279     0.4374813    
     17000   326.9183      -8814.9611     -835.49578      33683.294      0.27479612     0.44875946   
     18000   338.96649     -8811.1094     -182.40059      33726.438      0.2743875      0.44111886   
     19000   334.61512     -8813.7443      1186.6447      33667.651      0.28784792     0.45274412   
     20000   329.26657     -8819.0409      3504.6775      33655.982      0.29284558     0.45690395   
     21000   339.87913     -8816.3008     -1530.8832      33769.908      0.30544206     0.46298432   
     22000   342.43911     -8818.6716      2413.3503      33624.777      0.30463471     0.46726539   
     23000   341.80248     -8818.1546     -2332.8845      33690.397      0.31342098     0.47716137   
     24000   344.21694     -8821.7411     -800.13569      33655.169      0.32072759     0.48184704   
     25000   339.38252     -8820.9893     -995.30661      33701.066      0.33131805     0.48027765   
     26000   332.31628     -8818.4601      188.88347      33708.362      0.32892253     0.46029094   
     27000   344.88671     -8820.1733      2241.9397      33677.954      0.33866275     0.50268209   
     28000   329.23279     -8819.8236      213.84091      33680.621      0.33480624     0.46765716   
     29000   352.42635     -8819.9446      1001.6437      33675.946      0.34091467     0.48635487   
     30000   355.31379     -8818.9999     -279.32166      33711.368      0.33446338     0.47546289   
     31000   361.91151     -8821.1491     -1046.9123      33680.532      0.33621144     0.48121943   
     32000   349.91717     -8818.686       456.46512      33739.108      0.35131564     0.49220366   
     33000   353.73576     -8822.1345      1256.4691      33734.677      0.35994413     0.49276913   
     34000   354.54951     -8818.7213     -3517.4249      33757.3        0.33775467     0.48504489   
     35000   349.87989     -8821.492       1735.3059      33674.173      0.35626696     0.51659909   
     36000   356.96053     -8824.0438     -1164.327       33712.711      0.36595533     0.51381935   
     37000   365.97027     -8822.9063     -3150.4135      33761.956      0.36670196     0.50795105   
     38000   362.22468     -8826.8966     -2380.8121      33689.165      0.37114076     0.50855158   
     39000   344.37037     -8824.0855      420.71449      33669.062      0.37292183     0.52013813   
     40000   365.81776     -8821.5642     -1757.9275      33712.079      0.38875126     0.53093634   
     41000   368.00157     -8824.8981     -3198.69        33717.258      0.40425787     0.53544563   
     42000   378.00802     -8822.9018     -1915.6649      33756.292      0.4076086      0.54620531   
     43000   375.02469     -8825.5627     -2495.7118      33753.499      0.41234373     0.54133423   
     44000   365.85437     -8826.5917     -2423.3288      33753.178      0.42087113     0.56715208   
     45000   376.00524     -8827.5914      4.8493394      33689.911      0.41596096     0.59030516   
     46000   366.1161      -8829.6866     -1376.6148      33679.586      0.44009449     0.58599797   
     47000   377.8528      -8829.336       2389.1908      33651.908      0.42442314     0.58565855   
     48000   378.77142     -8831.2323     -752.81794      33673.842      0.42825882     0.61749335   
     49000   372.49847     -8832.958       2137.9177      33649.394      0.44331807     0.61241238   
     50000   373.79638     -8831.2866      205.64063      33674.08       0.41280873     0.62516966   
     51000   383.82711     -8833.3877      2074.2347      33656.842      0.43718838     0.63421734   
     52000   379.93717     -8838.0572     -1547.1294      33696.116      0.45467763     0.68450008   
     53000   374.12449     -8841.7409     -1641.1071      33658.618      0.46406265     0.67826474   
     54000   385.29633     -8841.248      -1376.8998      33640.681      0.49009986     0.7072113    
     55000   390.15481     -8844.4912     -1489.9804      33655.044      0.4654399      0.69499137   
     56000   388.16954     -8848.813      -379.67813      33583.277      0.51681174     0.72968578   
     57000   380.87593     -8849.0865     -2474.99        33631.622      0.51903445     0.74018126   
     58000   380.29361     -8850.8201      1806.3071      33562.414      0.52802427     0.74722016   
     59000   392.67673     -8857.4302     -116.4197       33599.998      0.5480686      0.74532758   
     60000   404.51026     -8856.3068     -268.58103      33631.094      0.53853648     0.75340696   
     61000   392.50196     -8856.2742      862.30686      33583.05       0.56689708     0.75433779   
     62000   396.29683     -8858.5553     -622.93395      33604.188      0.56105906     0.77866608   
     63000   409.13119     -8857.8168     -2583.8272      33607.574      0.56968834     0.75030378   
     64000   402.82206     -8862.207      -2333.8081      33640.797      0.56461408     0.7558561    
     65000   415.59998     -8862.8436     -2334.6369      33602.737      0.58448748     0.78405627   
     66000   394.31209     -8861.4752     -1577.2293      33625.69       0.58680513     0.79347085   
     67000   412.77975     -8860.0846     -3050.5403      33621.266      0.60493631     0.82278179   
     68000   410.68054     -8859.0783      565.69407      33595.079      0.59933641     0.81108931   
     69000   409.96258     -8857.5927      354.42003      33606.778      0.58590202     0.79523448   
     70000   411.47268     -8856.6966     -40.892518      33614.984      0.62981955     0.83221519   
     71000   408.35645     -8858.5802      1054.0385      33584.811      0.60768038     0.80179311   
     72000   422.95785     -8865.3984     -559.14354      33627.287      0.59404583     0.84548581   
     73000   436.84299     -8866.4274     -548.55452      33642.961      0.63347448     0.88692569   
     74000   410.40135     -8868.5748     -1115.5728      33639.26       0.63633123     0.88585707   
     75000   409.40979     -8870.2443      1390.2067      33596.291      0.62879348     0.9123134    
     76000   420.56055     -8872.3811      2041.1399      33567.246      0.62685893     0.88795561   
     77000   423.65108     -8870.634       1477.8023      33582.98       0.64627815     0.90637574   
     78000   422.26978     -8873.0894     -4879.9326      33667.311      0.67823311     0.90784234   
     79000   411.43117     -8870.6899     -753.10609      33614.077      0.65281019     0.92507678   
     80000   430.48485     -8870.2851      236.78912      33547.895      0.66990581     0.92848767   
     81000   431.66436     -8876.6585      544.17485      33576.887      0.67601034     0.94780021   
     82000   433.27847     -8876.4758     -394.8489       33585.122      0.67346037     0.94012523   
     83000   425.99769     -8880.2073      1033.5145      33502.36       0.66045891     0.94415071   
     84000   437.43479     -8880.1314     -1451.5893      33533.122      0.67066181     0.94746846   
     85000   419.08762     -8880.0471     -3073.9987      33599.252      0.67773761     0.99028779   
     86000   439.65719     -8880.434       262.33269      33520.494      0.69998737     0.99590477   
     87000   438.67183     -8885.0076      1333.0222      33540.373      0.67620518     1.0195258    
     88000   449.74099     -8883.6761     -2403.8656      33530.791      0.71430523     1.0231055    
     89000   430.09861     -8889.6607     -1088.843       33560.76       0.70505634     1.0095278    
     90000   458.31258     -8885.0543      1415.5561      33521.025      0.71419024     1.0322132    
     91000   450.4582      -8886.9101      1918.9109      33476.87       0.7467873      1.0372317    
     92000   447.16994     -8890.2159      1683.3721      33488.341      0.74947053     1.0370968    
     93000   433.28012     -8895.088       1309.291       33457.776      0.76937439     1.0611898    
     94000   450.84773     -8895.4402     -1837.6804      33486.361      0.78017593     1.0745834    
     95000   460.0253      -8898.5604      2515.6501      33352.127      0.79775148     1.0900149    
     96000   461.3319      -8902.7357      1752.9144      33434.775      0.82541787     1.0912462    
     97000   449.30029     -8900.1612      769.40571      33457.5        0.80411836     1.0837231    
     98000   474.61497     -8900.4406     -2308.4749      33525.342      0.82973734     1.1033922    
     99000   454.87188     -8899.2278      2281.1088      33411.304      0.82865078     1.1060444    
    100000   452.07783     -8905.0187      3525.2677      33409.886      0.82267412     1.1129709    
    101000   465.13565     -8904.218      -648.25836      33370.624      0.8450519      1.1003572    
    102000   472.71747     -8906.9764     -1269.8566      33382.607      0.83529877     1.1266629    
    103000   467.93429     -8909.4467     -220.02914      33282.346      0.8858001      1.1680919    
    104000   470.36904     -8910.4202     -118.49285      33273.512      0.89100159     1.1879649    
    105000   478.26775     -8917.9926     -393.40271      33262.333      0.88791183     1.1767944    
    106000   463.45682     -8916.4416      1481.7643      33289.342      0.89484243     1.1444182    
    107000   480.29289     -8913.625      -2277.7633      33353.287      0.94814043     1.1767146    
    108000   478.70678     -8919.6783      110.33191      33270.011      0.94098015     1.2339938    
    109000   473.39764     -8918.0472     -99.57884       33286.187      0.94839539     1.2282211    
    110000   495.78224     -8918.2008     -291.39291      33317.387      0.9469565      1.2473278    
    111000   476.51625     -8923.3957      1890.8814      33218.499      0.96230596     1.2379129    
    112000   480.93273     -8919.798       913.45163      33289.003      0.95709295     1.2470957    
    113000   480.95508     -8921.8747      1161.4078      33234.575      0.95948473     1.2277795    
    114000   493.8365      -8920.2148     -1910.4616      33349.498      0.99442355     1.2399422    
    115000   488.53888     -8920.2967     -279.17156      33273.533      0.9708685      1.242845     
    116000   493.83599     -8919.8289     -82.242247      33311.809      1.0026139      1.2775804    
    117000   488.15556     -8922.2957     -1390.2649      33259.786      0.96745177     1.225906     
    118000   490.10499     -8919.2812     -1183.8092      33286.208      0.98918767     1.2353639    
    119000   502.15299     -8924.1306      3260.228       33182.176      1.003598       1.2947784    
    120000   492.56829     -8921.8591     -1142.9308      33258.902      1.0134309      1.3219172    
    121000   496.86727     -8932.2167      2788.049       33214.47       1.024694       1.2891988    
    122000   500.20252     -8934.2527      2137.3371      33186.446      1.0475655      1.3570234    
    123000   496.01901     -8933.6523      1483.0006      33157.698      1.0487371      1.3445102    
    124000   504.73816     -8935.4864      853.22098      33149.071      1.0376001      1.3839759    
    125000   496.93951     -8939.4924      3207.7178      33137.147      1.0556934      1.3355229    
    126000   505.08169     -8938.4135      2215.1955      33138.033      1.0695794      1.4070754    
    127000   491.00809     -8940.8136      2038.1897      33167.669      1.1064978      1.447339     
    128000   527.00629     -8943.4919     -961.12072      33168.654      1.1046109      1.4505618    
    129000   503.04924     -8943.9575      3673.2235      33154.259      1.1085215      1.5060865    
    130000   506.15343     -8944.7215      481.15755      33126.259      1.147431       1.5061306    
    131000   508.39886     -8952.8663      93.870384      33119.117      1.1319463      1.531465     
    132000   537.22582     -8953.9794      1008.6627      33024.784      1.1458758      1.5172449    
    133000   520.25953     -8958.3277      3402.6644      33058.568      1.1528853      1.5842288    
    134000   513.68686     -8962.5042     -703.14625      33087.895      1.1734231      1.5932111    
    135000   522.80357     -8961.2937     -2118.0307      33131.966      1.17939        1.589211     
    136000   512.21338     -8963.8776     -2253.1229      33086.519      1.1763657      1.5483083    
    137000   517.53421     -8964.866       652.53828      33096.746      1.2074386      1.5610065    
    138000   546.96676     -8967.1843      500.83759      33001.62       1.2027625      1.6085515    
    139000   518.76747     -8970.6973     -3335.0644      33127.69       1.2360541      1.6245461    
    140000   528.45026     -8966.8816      1301.2615      33057.502      1.2349346      1.6539761    
    141000   530.36583     -8972.3368     -753.63905      33074.16       1.216972       1.6566948    
    142000   526.30471     -8974.3375     -1314.1153      33038.981      1.2484943      1.688511     
    143000   558.73076     -8972.1891     -926.73114      33066.167      1.2746466      1.7903693    
    144000   532.02501     -8981.2855     -1214.1085      32992.944      1.3045798      1.7745232    
    145000   520.53655     -8984.6185     -2566.3471      33046.66       1.322106       1.8762905    
    146000   544.32948     -8993.2171     -1405.4398      32936.924      1.3511344      1.9082974    
    147000   542.95848     -8994.8904     -470.44742      32973.72       1.3643092      1.9293056    
    148000   532.0967      -8995.64        543.56856      32910.67       1.3728384      1.9522042    
    149000   534.53666     -8998.348       1306.5277      32931.323      1.4140751      1.9887053    
    150000   550.69583     -8995.3323     -1190.2903      32982.388      1.4590791      1.9964231    
    151000   542.96673     -9000.0132     -1722.5718      32948.565      1.4495471      2.0166686    
    152000   524.30451     -9004.0446     -1806.0128      32950.593      1.4625248      2.0715781    
    153000   540.80222     -9004.6608     -2371.6604      32969.379      1.4787294      2.0926956    
    154000   562.34064     -9003.999      -1712.9236      33004.099      1.5058795      2.028417     
    155000   564.31129     -9004.9244      1455.7487      32941.423      1.4726522      2.1120783    
    156000   551.69073     -9004.955      -3602.5962      32999.008      1.5410852      2.1386319    
    157000   555.55534     -9011.8708      1066.3645      32936.325      1.508629       2.1905087    
    158000   550.09198     -9014.9629      1304.3056      32951.987      1.5756976      2.1856635    
    159000   548.43085     -9013.0436      169.82904      32964.638      1.5791394      2.2189042    
    160000   551.69627     -9018.6176      2223.6811      32884.767      1.6018531      2.306812     
    161000   559.71817     -9028.3281      872.59412      32887.807      1.5933067      2.3068497    
    162000   570.95406     -9029.7139     -2283.0187      32929.127      1.6318132      2.3992395    
    163000   552.35876     -9026.7844     -3682.0325      32912.814      1.6659278      2.4305708    
    164000   570.12384     -9039.5693      1457.3626      32842.416      1.6658329      2.4285708    
    165000   564.11541     -9045.6183      328.54801      32854.718      1.6941106      2.5195309    
    166000   567.38291     -9046.7884      1928.7264      32801.251      1.6469877      2.4941436    
    167000   561.02788     -9046.6177     -2439.8686      32866.664      1.6879267      2.4889653    
    168000   568.52768     -9043.7627      4247.2631      32744.379      1.7280746      2.5330061    
    169000   564.17583     -9051.341       840.35058      32807.045      1.7646436      2.5284017    
    170000   584.09635     -9048.0243     -161.52817      32795.032      1.7604659      2.5105472    
    171000   567.96661     -9050.4524      2465.6855      32813.797      1.7977617      2.4962594    
    172000   577.07026     -9050.0633     -5510.9254      32924.908      1.8129429      2.5330599    
    173000   586.23914     -9050.6086      1353.7665      32819.84       1.8525439      2.5654933    
    174000   572.26892     -9059.5874     -1434.9251      32795.939      1.839881       2.5362186    
    175000   575.42537     -9062.8397     -64.985852      32827.383      1.8861088      2.6212802    
    176000   580.36261     -9060.8156     -925.36546      32791.357      1.8732804      2.5958056    
    177000   583.74386     -9065.416       368.25187      32756.986      1.9337256      2.6411799    
    178000   585.23419     -9061.1516      2433.7948      32733.859      1.8921007      2.6419039    
    179000   588.10967     -9070.1075     -475.75666      32765.849      1.9796547      2.6756487    
    180000   599.11563     -9069.164       2357.4247      32693.02       1.9480075      2.6905894    
    181000   581.57325     -9069.527       2645.6031      32698.038      1.926804       2.7050028    
    182000   598.32219     -9070.2579     -1942.0263      32738.351      1.9861394      2.7106637    
    183000   609.63964     -9079.6096      1617.3435      32717.09       1.9395449      2.7302373    
    184000   589.69244     -9068.8114      626.11022      32732.513      1.8975551      2.7060259    
    185000   589.34769     -9076.1582      1123.5421      32686.301      1.9521334      2.7883552    
    186000   594.52139     -9075.0648     -1054.547       32731.236      2.0429771      2.8307159    
    187000   623.8152      -9074.9766      1720.5328      32700.042      2.0197945      2.8278217    
    188000   589.02258     -9074.1202      4149.9741      32592.932      2.0410105      2.9136837    
    189000   600.90447     -9077.8268      3073.1674      32629.489      2.0138101      2.8595091    
    190000   596.77173     -9078.4121      1787.6249      32657.127      1.9956799      2.8420912    
    191000   595.07114     -9079.5177     -2867.361       32686.768      2.1084835      2.8707087    
    192000   621.95457     -9075.5285     -4402.3303      32736.16       2.0167462      2.8277447    
    193000   596.0885      -9077.9415      428.40032      32672.164      2.0213486      2.8276108    
    194000   614.91721     -9081.4909      1948.18        32691.433      2.0471135      2.8875853    
    195000   595.51944     -9082.4544      2745.7671      32660.717      2.0402166      2.8354543    
    196000   616.6729      -9081.2365     -1871.5984      32751.645      2.0820172      2.8991909    
    197000   615.95311     -9089.2255     -2677.5531      32762.138      2.1238457      3.0046366    
    198000   593.12553     -9088.6801     -489.85817      32731.681      2.1685941      3.0981587    
    199000   638.38972     -9089.3892     -645.7102       32693.859      2.1522183      3.0934072    
    200000   625.8898      -9087.1304     -1860.9646      32698.74       2.148768       3.0959311    
Loop time of 2281.47 on 16 procs for 200000 steps with 1810 atoms

Performance: 7.574 ns/day, 3.169 hours/ns, 87.663 timesteps/s, 158.669 katom-step/s
100.0% CPU use with 4 MPI tasks x 4 OpenMP threads

MPI task timing breakdown:
Section |  min time  |  avg time  |  max time  |%varavg| %total
---------------------------------------------------------------
Pair    | 1051.8     | 1642.7     | 2268.2     |1458.3 | 72.00
Neigh   | 0.75039    | 0.7806     | 0.81369    |   3.4 |  0.03
Comm    | 7.0529     | 632.43     | 1223.2     |2349.8 | 27.72
Output  | 0.042115   | 0.050737   | 0.075125   |   6.3 |  0.00
Modify  | 4.5069     | 4.5996     | 4.7012     |   3.9 |  0.20
Other   |            | 0.894      |            |       |  0.04

Nlocal:          452.5 ave         476 max         427 min
Histogram: 1 0 1 0 0 0 0 0 1 1
Nghost:           1440 ave        1467 max        1412 min
Histogram: 1 0 0 1 0 0 1 0 0 1
Neighs:              0 ave           0 max           0 min
Histogram: 4 0 0 0 0 0 0 0 0 0
FullNghs:        21737 ave       24271 max       19081 min
Histogram: 1 1 0 0 0 0 0 0 0 2

Total # of neighbors = 86948
Ave neighs/atom = 48.037569
Neighbor list builds = 728
Dangerous builds = 0

unfix           2

fix             3 all npt temp 623.15 623.15 0.1 iso 0.0 0.0 1.0

run             20000000
Per MPI rank memory allocation (min/avg/max) = 8.529 | 8.534 | 8.538 Mbytes
   Step          Temp          PotEng         Press          Volume      c_msd_si[4]    c_msd_ti[4]  
    200000   625.8898      -9087.1304     -1860.9646      32698.74       2.148768       3.0959311    
    201000   620.54428     -9090.1688     -3346.5617      32663.164      2.1218837      3.0527948    
    202000   621.96899     -9090.9381      2267.809       32667.766      2.1389367      3.0519506    
    203000   625.59249     -9089.5163      196.74921      32677.898      2.229244       3.1874889    
    204000   617.51032     -9093.4923      139.46068      32660.336      2.1461632      3.161364     
    205000   619.0819      -9089.9786      2434.728       32575.092      2.1449684      3.2088522    
    206000   623.08298     -9091.8913      573.01002      32623.152      2.2382649      3.3114047    
    207000   594.5007      -9094.6784     -441.41956      32638.819      2.2414388      3.3605008    
    208000   641.24941     -9097.7077      1617.8121      32657.22       2.259237       3.3535628    
    209000   614.13402     -9098.8476      1525.9544      32651.185      2.2528033      3.3642813    
    210000   617.8772      -9096.3784      476.69537      32645.033      2.2538703      3.4475765    
    211000   625.7254      -9101.5518      2817.4086      32599.401      2.2799683      3.5589191    
    212000   617.68649     -9102.6431      1185.3151      32606.546      2.272219       3.6056096    
    213000   615.09791     -9106.1046     -1129.7339      32643.626      2.3050241      3.5812022    
    214000   639.19903     -9104.9741     -1602.6691      32686.789      2.3013342      3.6236274    
    215000   613.18134     -9105.7279      4769.1475      32502.432      2.3364284      3.6277567    
    216000   624.38176     -9103.5313     -4186.7312      32732.963      2.3364322      3.6896042    
    217000   629.24307     -9115.0581     -863.04469      32602.663      2.3268362      3.6409929    
    218000   639.6183      -9112.8552      2478.0583      32523.268      2.3732961      3.7688754    
    219000   645.61104     -9116.1581      938.47518      32565.537      2.3898102      3.6930703    
    220000   638.21846     -9114.4801      4165.1273      32515.791      2.3405012      3.739057     
    221000   627.23051     -9108.4304      2021.4927      32563.328      2.4078784      3.8149618    
    222000   605.38712     -9115.1242      313.31551      32585.699      2.4025223      3.888143     
    223000   629.33216     -9113.257       2806.9291      32553.115      2.3676518      3.8607081    
    224000   622.78194     -9127.3243      754.54728      32562.835      2.4223099      3.8816408    
    225000   621.99509     -9123.4177     -457.85537      32564.548      2.4467565      3.9547148    
    226000   634.96658     -9125.2549      251.8127       32510.006      2.4198213      3.9948407    
    227000   617.54297     -9127.2321      408.55978      32556.708      2.4239099      4.0433114    
    228000   609.92238     -9129.3894     -3176.4254      32560.002      2.4517517      4.1060095    
    229000   633.3227      -9128.2389     -2230.2357      32598.051      2.4832255      4.1101018    
    230000   608.835       -9134.3712     -5739.3818      32647.627      2.4782109      4.1241001    
    231000   641.5976      -9141.7229      1275.1919      32542.525      2.5100667      4.1022901    
    232000   637.50112     -9137.2545     -155.36382      32559.766      2.6050501      4.2235941    
    233000   618.34048     -9142.9278     -167.72495      32558.479      2.6091753      4.1636776    
    234000   603.11051     -9145.1068     -440.6826       32550.442      2.6053161      4.1878514    
    235000   623.13612     -9149.2974     -4825.6024      32598.728      2.6747846      4.2799138    
    236000   625.61587     -9147.338       195.22302      32533.739      2.6348984      4.258213     
    237000   609.50243     -9150.2728     -522.51132      32555.682      2.6727829      4.3031477    
    238000   629.25028     -9151.1685      529.87302      32526.779      2.7413256      4.3426289    
    239000   605.69171     -9155.2141     -2597.8353      32511.157      2.707128       4.2805563    
    240000   626.9141      -9161.178       1561.033       32474.86       2.7576489      4.4152937    
    241000   614.05274     -9159.1758      1632.8669      32492.711      2.7252888      4.3741719    
    242000   617.85349     -9162.9717     -212.07554      32542.101      2.7543619      4.3749589    
    243000   645.45068     -9165.1872      2055.1473      32494.825      2.7600545      4.4535124    
    244000   624.37233     -9167.0153      1149.633       32460.504      2.7220899      4.407922     
    245000   628.137       -9162.9154     -966.12191      32537.287      2.7755216      4.4318436    
    246000   619.93095     -9164.0419     -1142.9797      32504.693      2.7357611      4.4012772    
    247000   624.3761      -9162.3436     -451.37518      32497.078      2.7229701      4.4369685    
    248000   628.73926     -9158.5344      2471.5396      32481.491      2.8060187      4.4374595    
    249000   618.91611     -9168.9958     -2511.1297      32501.335      2.8645801      4.4859425    
    250000   615.01174     -9176.5373     -1516.8078      32517.356      2.8884399      4.5769302    
    251000   616.23344     -9172.4523     -2374.3428      32497.202      2.9126575      4.532384     
    252000   637.83392     -9170.7445     -1015.1243      32483.231      2.946166       4.5827591    
    253000   621.94331     -9177.6915     -990.15115      32503.822      2.978796       4.5667712    
    254000   633.39196     -9176.2495     -813.61922      32527.637      2.8932775      4.6233246    
    255000   631.73493     -9185.1177     -2009.209       32522.616      2.945597       4.6378673    
    256000   647.59869     -9186.4711      1928.485       32421.394      2.9086664      4.6674201    
    257000   624.07194     -9177.5825     -1915.6614      32504.846      2.9655974      4.6666696    
    258000   616.03499     -9180.9315      457.79023      32445.254      2.990769       4.6799616    
    259000   642.93736     -9185.8247      3247.5435      32420.62       2.9750631      4.7934496    
    260000   628.79738     -9189.3683     -950.18822      32467.665      2.9841478      4.8011352    
    261000   612.66601     -9186.7256     -1453.7951      32454.489      2.9658952      4.7714321    
    262000   630.53397     -9190.7342     -1617.2151      32440.97       3.0149921      4.8317885    
    263000   615.89584     -9193.2172     -4016.0746      32530.865      3.0504361      4.8421492    
    264000   613.2887      -9189.6532     -87.705595      32464.585      3.0231443      4.7949294    
    265000   596.78708     -9189.8008     -2647.2402      32472.358      2.9986533      4.882202     
    266000   629.05096     -9192.1294     -2986.04        32494.661      3.0184979      4.8550634    
    267000   633.73715     -9193.5387     -84.733796      32466.401      3.0798656      4.9057521    
    268000   613.47003     -9194.4408      449.47682      32412.404      3.1148076      4.8604967    
    269000   631.58287     -9199.7517      1710.8553      32394.427      3.1173774      4.9689288    
    270000   631.61213     -9203.9222     -1744.709       32454.979      3.0729416      5.0002975    
    271000   616.38176     -9201.1818     -1651.4062      32438.616      3.0773347      5.0001821    
    272000   620.24374     -9198.9781      616.23617      32435.096      3.1907225      5.0696719    
    273000   616.06189     -9204.8292      1352.7491      32410.495      3.1347976      4.9981503    
    274000   616.37335     -9204.0482     -1702.7082      32440.645      3.0840612      5.001955     
    275000   618.35914     -9208.9559      2931.0494      32325.864      3.0851364      4.9716183    
    276000   642.1893      -9202.4498     -532.54886      32478.067      3.1312697      5.0348609    
    277000   634.46212     -9208.8749     -220.53033      32330.376      3.1418106      5.0683462    
    278000   632.96415     -9206.0881     -1666.0064      32456.845      3.1506435      5.1506999    
    279000   604.80599     -9205.0028      622.67277      32375.027      3.1550288      5.0999136    
    280000   625.45417     -9203.5626     -654.75744      32420.147      3.1233706      5.077546     
    281000   614.2588      -9208.5419      5445.9025      32302.259      3.1406567      5.110955     
    282000   654.68474     -9208.5137     -3012.9313      32425.714      3.1766271      5.1440007    
    283000   633.08758     -9211.0331      1976.6916      32385.344      3.1531581      5.1281479    
    284000   656.9874      -9212.7138      1087.3684      32384.817      3.1326694      5.0963615    
    285000   618.40659     -9212.5679      1197.3137      32360.586      3.2306361      5.0931261    
    286000   642.2591      -9207.0252      2311.2929      32363.657      3.1664021      5.1201908    
    287000   610.42596     -9208.8069     -1692.6253      32412.191      3.1882187      5.1161921    
    288000   644.66426     -9209.4202     -326.26823      32418.839      3.2338623      5.2166193    
    289000   608.3332      -9210.9319     -1899.0526      32415.339      3.1762736      5.1146231    
    290000   641.35421     -9213.1094      40.111474      32398.188      3.1851615      5.1640463    
    291000   630.90034     -9209.9963     -1550.1632      32467.072      3.2659775      5.177965     
    292000   627.12248     -9219.0646     -2309.7603      32426.882      3.1998495      5.1780165    
    293000   629.60226     -9211.4453     -1015.6047      32432.145      3.1764119      5.2402702    
    294000   598.62825     -9214.8951      1231.6576      32353.878      3.2236941      5.3056819    
    295000   618.75033     -9217.7008      1129.701       32296.398      3.2295075      5.2901469    
    296000   617.87807     -9213.2799      1761.8528      32272.596      3.1997652      5.2543854    
    297000   612.43905     -9217.74        1137.9456      32335.038      3.2062867      5.2766448    
    298000   623.35217     -9212.2992     -2633.0677      32417.055      3.2637104      5.4152978    
    299000   621.50893     -9220.0887     -3859.4261      32377.757      3.2953134      5.3929879    
    300000   643.46163     -9219.5906     -817.64376      32343.404      3.2183889      5.4323474    
    301000   612.28027     -9224.2565     -124.15239      32416.807      3.3440621      5.4462093    
    302000   623.21356     -9216.7301     -797.63683      32398.049      3.294615       5.4389431    
    303000   602.40118     -9224.2504      370.23806      32378.971      3.2957741      5.4811125    
    304000   625.89508     -9218.4533     -518.93133      32394.497      3.2744157      5.429614     
    305000   620.71851     -9217.5629     -1981.8366      32395.204      3.2992001      5.4520953    
    306000   625.81613     -9223.6513     -1516.6265      32364.795      3.2145962      5.3635112    
    307000   618.89278     -9225.5771     -1566.7858      32359.91       3.2762929      5.4439559    
    308000   636.50901     -9220.5091     -237.48957      32297.824      3.2699619      5.4422872    
    309000   617.39911     -9222.9743     -261.93668      32328.123      3.2758096      5.4914779    
    310000   627.21959     -9221.6975     -727.21203      32274.098      3.2655202      5.5089989    
    311000   637.86678     -9226.6198     -1571.5148      32365.324      3.2826227      5.5400574    
    312000   646.47147     -9227.4077      534.83371      32334.426      3.32381        5.4953831    
    313000   596.45982     -9224.942       887.89218      32303.892      3.2627731      5.5170832    
    314000   650.86398     -9227.6728      4738.7682      32265.248      3.3075373      5.6054901    
    315000   596.1825      -9226.4028      1702.3401      32290.699      3.2540574      5.5010011    
    316000   635.05846     -9221.4599     -1761.1603      32395.344      3.2658753      5.5455339    
    317000   603.84931     -9224.384       2120.6706      32282.135      3.2758677      5.5506637    
    318000   627.63616     -9228.3218      122.78726      32335.414      3.2845345      5.5727368    
    319000   630.11798     -9230.3204      2324.5055      32307.423      3.2384759      5.5690843    
    320000   628.23298     -9227.3088      154.03503      32350.731      3.2893669      5.5244209    
    321000   623.64964     -9230.8834      2067.4913      32326.622      3.279783       5.5679492    
    322000   641.56845     -9219.797       2673.9019      32294.025      3.3098352      5.636548     
    323000   644.73545     -9234.6155      1507.6501      32270.881      3.2781837      5.5102435    
    324000   629.98852     -9227.2648      1094.4798      32297.147      3.3037282      5.6127046    
    325000   610.53959     -9230.363       639.55742      32330.929      3.317208       5.5502522    
    326000   629.47299     -9226.8677      1149.3889      32298.516      3.2897467      5.5816814    
    327000   640.4329      -9234.4482      728.6292       32255.293      3.3015707      5.5786173    
    328000   627.6036      -9232.576      -322.35102      32338.197      3.3470016      5.5929013    
    329000   626.76919     -9226.1686      2859.9307      32275.419      3.3067331      5.5225333    
    330000   618.20814     -9232.0781     -4415.2398      32355          3.2896873      5.5597816    
    331000   639.1339      -9236.3785     -745.42965      32294.347      3.3489615      5.5817075    
    332000   613.43841     -9235.744      -2077.7972      32378.492      3.3660563      5.6239237    
    333000   630.26142     -9234.9981      4538.3224      32210.437      3.3455797      5.5939228    
    334000   613.59813     -9237.9781      3209.8537      32189.337      3.2981541      5.5575347    
    335000   625.9866      -9231.4754     -3415.0429      32330.568      3.3152271      5.5625599    
    336000   618.81888     -9234.5609      254.52844      32251.662      3.2816294      5.6144888    
    337000   625.43647     -9237.4702      9.2763039      32248.347      3.2677356      5.5477065    
    338000   617.17538     -9237.5783     -1172.4709      32286.97       3.3611704      5.6909977    
    339000   634.07131     -9235.4626     -4621.1321      32337.84       3.4079219      5.6162061    
    340000   627.54822     -9238.3586     -1506.0362      32317.4        3.3250807      5.57135      
    341000   625.50524     -9229.5655     -4288.9569      32390.604      3.367446       5.6881172    
    342000   642.08995     -9242.8528     -3484.427       32354.12       3.3407532      5.5930276    
    343000   624.55869     -9241.8294      4315.4147      32206.968      3.2737318      5.5953094    
    344000   637.52723     -9240.4153     -2119.3731      32315.756      3.2959253      5.60919      
    345000   631.19126     -9236.0373     -472.40703      32291.721      3.3857777      5.6906609    
    346000   626.35547     -9233.6365      46.88719       32254.867      3.3495887      5.6540355    
    347000   610.70292     -9237.2811     -3062.7853      32368.592      3.3545353      5.6459118    
    348000   631.14824     -9240.9047     -2112.4034      32267.335      3.364241       5.7211588    
    349000   619.01216     -9237.7386     -2531.8608      32305.702      3.3367295      5.675953     
    350000   613.83184     -9236.3989     -4210.7731      32333.571      3.3744945      5.6780844    
    351000   644.47423     -9238.9647     -862.50815      32317.203      3.3876255      5.7260536    
    352000   619.01018     -9240.6294      2011.0925      32258.428      3.3861071      5.6797927    
    353000   648.41267     -9241.0842      3115.5927      32246.435      3.4666903      5.768935     
    354000   626.90011     -9243.9502      259.29626      32313.505      3.4413403      5.7124719    
    355000   625.9653      -9238.5657     -2294.3866      32285.926      3.3974901      5.7972888    
    356000   608.23717     -9243.4109     -1628.0324      32267.606      3.3774911      5.7623746    
    357000   640.45492     -9245.3704      958.54909      32242.593      3.4423658      5.781719     
    358000   613.86437     -9240.1026      211.92137      32239.168      3.3647321      5.8383145    
    359000   614.89503     -9244.4446     -2208.7031      32279.137      3.4353886      5.8528906    
    360000   623.5347      -9245.086      -4353.7455      32342.866      3.4240119      5.8650207    
    361000   652.63056     -9242.3669     -1469.8261      32266.605      3.4474785      5.8585789    
    362000   639.85933     -9244.7893      128.06686      32242.921      3.4001742      5.8567715    
    363000   622.72365     -9243.4686      3916.9736      32211.261      3.3791673      5.8298667    
    364000   624.72087     -9245.2168     -2097.8001      32263.489      3.4387084      5.7960913    
    365000   629.79552     -9246.8021     -757.02066      32245.577      3.4792667      5.8105229    
    366000   619.25319     -9247.1556     -881.97025      32323.676      3.4601428      5.8717844    
    367000   637.31491     -9243.4371     -1586.2369      32292.179      3.5160037      5.808737     
    368000   613.32048     -9246.3712     -1479.2258      32230.73       3.4817779      5.8590441    
    369000   628.70695     -9243.9628     -1517.5128      32284.35       3.4613706      5.8516494    
    370000   627.88332     -9244.7151     -152.4383       32258.353      3.4857004      5.8267216    
    371000   603.44708     -9248.5261     -2627.6438      32290.076      3.4832407      5.9008019    
    372000   639.81492     -9249.9304     -608.85483      32265.796      3.5094802      5.9603005    
    373000   608.95908     -9253.5883     -1962.415       32279.667      3.5912522      6.041383     
    374000   631.88647     -9257.4084      3923.789       32118.282      3.5393455      6.043022     
    375000   644.05861     -9263.7237     -368.98815      32244.735      3.5748407      6.0202201    
    376000   626.22844     -9265.3442     -581.11496      32276.925      3.6371357      6.1402105    
    377000   626.13276     -9256.8121     -4902.6562      32304.188      3.5978894      6.0645018    
    378000   606.67735     -9261.2696     -3402.0478      32260.017      3.6333952      6.0837158    
    379000   629.2292      -9261.327      -122.22143      32197.564      3.6638299      6.1011935    
    380000   594.67588     -9268.4296      2535.2826      32140.938      3.6198804      6.1318708    
    381000   620.21658     -9263.7133     -1162.2724      32208.131      3.6832647      6.1235827    
    382000   608.86488     -9265.2334     -3842.4631      32285.419      3.7096916      6.1127947    
    383000   624.11223     -9268.8078     -1699.6001      32216.927      3.6177439      6.0908951    
    384000   633.70097     -9265.61        1799.5098      32169.393      3.7482826      6.1745481    
    385000   626.32512     -9273.2935     -3670.9631      32192.205      3.7071395      6.1115759    
    386000   618.43775     -9270.4888      2466.746       32142.691      3.7132334      6.1592123    
    387000   634.72918     -9269.5291      121.31714      32152.445      3.7735444      6.193924     
    388000   619.21035     -9268.5643      4842.317       32093.431      3.7522764      6.2591561    
    389000   633.60139     -9270.4437     -2625.5195      32186.144      3.8173179      6.292346     
    390000   609.68977     -9274.4865      1291.0995      32122.64       3.7651751      6.2149771    
    391000   634.36751     -9277.1651      2510.0268      32069.445      3.8022542      6.2246298    
    392000   618.7065      -9283.4416      174.23951      32119.346      3.8533492      6.2681692    
    393000   632.41151     -9277.5611      2767.1268      32074.779      3.8441487      6.3144856    
    394000   613.15551     -9280.2954      2482.4583      32077.566      3.8271862      6.2443884    
    395000   616.75902     -9274.7836      5601.5149      32069.618      3.8300079      6.2368471    
    396000   645.21565     -9277.5006      48.904124      32087.293      3.835028       6.2777333    
    397000   623.34742     -9283.3504     -1357.0527      32121.646      3.8053566      6.3105134    
    398000   635.6264      -9280.3105      127.89644      32085.911      3.852243       6.3286952    
    399000   620.2655      -9284.2602     -2960.2544      32087.51       3.8292674      6.247803     
    400000   610.88197     -9273.3121     -439.84961      32078.928      3.7341432      6.3529724    
    401000   619.95352     -9284.898       4858.5452      32013.846      3.8077657      6.2452311    
    402000   623.30213     -9286.4781     -1587.9831      32122.693      3.8054719      6.3483949    
    403000   632.31542     -9284.3494     -1836.0069      32131.971      3.8030163      6.2893259    
    404000   606.15148     -9287.4715     -1885.5072      32094.491      3.8465525      6.357809     
    405000   627.96456     -9289.2721     -2140.1845      32084.378      3.8102073      6.3350745    
    406000   610.44852     -9288.8543      1288.3735      32042          3.7431233      6.2680896    
    407000   614.57206     -9288.6313      2304.5341      32032.935      3.7868843      6.2772073    
    408000   633.85693     -9292.089       161.49313      32099.091      3.7872692      6.2946048    
    409000   629.5439      -9292.3466     -1717.9801      32150.688      3.8068001      6.3661017    
    410000   633.35257     -9283.4275      1922.5833      32096.926      3.8022418      6.3966727    
    411000   636.39159     -9290.0828     -159.58867      32103.429      3.8276559      6.3440596    
    412000   631.73267     -9293.5762      1973.8317      32015.715      3.8116228      6.4415468    
    413000   626.65751     -9289.4389     -1457.5701      32118.184      3.8413695      6.3916146    
    414000   632.75658     -9291.3429     -308.6321       32089.179      3.7528212      6.29163      
    415000   619.33672     -9291.9457     -154.40631      32063.52       3.7666111      6.3738743    
    416000   614.30581     -9292.332      -3392.5149      32128.882      3.8090635      6.3618148    
    417000   631.1753      -9287.3729     -795.135        32110.734      3.7941084      6.4096234    
    418000   614.00421     -9294.106       4979.9849      32026.345      3.8010108      6.3800471    
    419000   626.12104     -9286.4922      1547.1299      32074.34       3.7912105      6.3524195    
    420000   616.41649     -9297.423       451.26738      32051.336      3.8226932      6.4427372    
    421000   633.20781     -9298.0552      3055.2621      32036.279      3.8255521      6.4425515    
    422000   616.21553     -9296.1867      4156.6236      31961.111      3.8189071      6.4129697    
    423000   623.55998     -9293.4777     -1657.044       32081.636      3.8640991      6.4687994    
    424000   609.5428      -9298.8293     -2030.4487      32140.718      3.8359138      6.5289035    
    425000   619.26687     -9293.0876      391.01257      32087.127      3.8429142      6.4197961    
    426000   615.82899     -9290.3096     -4212.8836      32159.428      3.8415668      6.4725411    
    427000   617.12647     -9302.1066     -2930.9307      32132.971      3.7955972      6.5335053    
    428000   623.69368     -9293.0109      931.52596      32016.561      3.7917929      6.4183185    
    429000   620.44711     -9295.7689     -3525.8463      32111.642      3.8653851      6.5165271    
    430000   611.42156     -9296.279      -3917.7998      32085.021      3.8654947      6.4920988    
    431000   626.29273     -9289.6459     -4154.508       32154.792      3.9230409      6.5229256    
    432000   608.25562     -9297.144       1908.9504      32019.773      3.8110234      6.4968162    
    433000   607.78607     -9303.9338     -3558.0251      32037.216      3.9009041      6.50386      
    434000   635.41532     -9300.4887      3688.3894      31984.285      3.8999685      6.5180422    
    435000   625.28721     -9300.7444     -1578.6883      32116.67       3.8949407      6.4913559    
    436000   616.99209     -9297.1522      2718.9455      32019.71       3.9016294      6.5236738    
    437000   630.47148     -9298.1519      272.30247      32054.173      3.8872093      6.5934989    
    438000   611.03349     -9300.6267      490.9869       32032.905      3.9080945      6.5408417    
    439000   632.48087     -9296.2978     -675.46412      32089.556      3.8831904      6.5716274    
    440000   615.07532     -9299.6454      2407.1518      32085.348      3.8597511      6.5590134    
    441000   632.90318     -9300.382       2343.3598      32035.498      3.8650873      6.507053     
    442000   625.32127     -9307.0805     -486.60205      32028.711      3.8861252      6.5240779    
    443000   650.50421     -9303.1951     -1490.7212      32115.304      3.8879847      6.6243158    
    444000   618.77578     -9301.8171     -1710.9918      32118.353      3.8993917      6.5190793    
    445000   641.54076     -9299.3035     -73.06968       32033.264      3.8995636      6.6479802    
    446000   624.10387     -9305.4245     -1401.9163      32049.01       3.8771881      6.580856     
    447000   621.15322     -9301.1413      340.66604      32073.894      3.8805521      6.5881232    
    448000   597.63204     -9299.8428     -1119.3142      32086.025      3.9022591      6.5466909    
    449000   627.08807     -9300.878      -664.62434      32064.192      3.8976698      6.6116998    
    450000   616.76671     -9306.8873      996.63307      32041.332      3.9066499      6.5079435    
    451000   623.70546     -9301.2485      3970.1334      31983.129      3.877944       6.5562478    
    452000   610.85218     -9297.2463      633.70837      32081.409      3.9839643      6.5824776    
    453000   612.97133     -9305.0621     -78.263513      32084.129      3.9850949      6.6157473    
    454000   636.80615     -9303.4579      614.20111      32081.246      3.9581342      6.6066765    
    455000   610.31467     -9300.9931     -1872.8694      32113.474      3.9095542      6.6738819    
    456000   621.22476     -9306.1777     -3834.0991      32093.049      4.0036653      6.7246225    
    457000   611.43164     -9309.9913     -403.48975      32027.016      3.954489       6.634947     
    458000   632.54183     -9309.0225     -2136.4673      32075.547      3.9400733      6.6807773    
    459000   620.38798     -9306.3217      5483.8569      31978.693      3.9387754      6.6845941    
    460000   620.31569     -9306.8627      19.6666        32017.525      3.9770955      6.6214574    
    461000   615.17653     -9308.0457      938.36363      31997.912      3.9377271      6.7035316    
    462000   619.94014     -9308.6451      423.51535      31977.083      3.9058445      6.6480408    
    463000   601.00507     -9305.1083     -2935.3117      32118.86       4.0440207      6.6209952    
    464000   641.47163     -9310.1604      2718.5102      31979.336      3.9421225      6.7307572    
    465000   612.97667     -9310.7158     -2224.1487      32055.613      3.9310335      6.6945744    
    466000   621.13875     -9318.5764      129.32815      32006.224      3.9838777      6.6959482    
    467000   625.73807     -9311.8464     -1394.6888      32047.689      3.9406318      6.7088242    
    468000   617.76507     -9311.562       2026.6967      31990.975      3.9628674      6.7164134    
    469000   641.86476     -9315.7835     -1896.5085      32066.668      3.9989096      6.7423023    
    470000   646.52279     -9311.0451      3311.8835      32002.269      4.0040119      6.7104225    
    471000   605.51753     -9309.7377     -447.6461       32083.063      4.0101674      6.7114004    
    472000   622.72299     -9310.7075      374.07329      32030.687      3.9705942      6.7034883    
    473000   617.93219     -9311.2025      1591.3609      32030.632      3.9998203      6.7222144    
    474000   630.00204     -9315.9692     -665.51677      32048.913      4.062173       6.7652399    
    475000   629.80158     -9310.1863     -3368.777       32090.82       4.0229567      6.7857173    
    476000   616.01724     -9312.2201     -2363.3647      32069.133      4.0589478      6.7720629    
    477000   610.68211     -9311.2647     -3451.2737      32071.6        4.0571885      6.7315547    
    478000   612.19672     -9308.3879     -2839.2209      32163.036      4.1042096      6.7896663    
    479000   624.76384     -9315.9329      2683.5081      32028.505      4.1362046      6.8416413    
    480000   627.28153     -9314.1697     -290.37805      32009.644      4.1307254      6.8215605    
    481000   635.63599     -9315.1568      3591.2983      31987.045      4.0521993      6.8867271    
    482000   644.16842     -9314.949       2031.4763      32040.995      4.1352003      6.8444642    
    483000   610.2175      -9322.2123     -2376.7452      32049.795      4.0500641      6.788821     
    484000   627.48138     -9316.6736      1070.6788      32046.058      4.0739622      6.8105544    
    485000   642.02284     -9318.5186      1182.761       32082.318      3.9783588      6.8025998    
    486000   605.97009     -9321.5994     -1876.5019      32080.324      4.0160011      6.8274399    
    487000   621.23884     -9317.3639     -1792.0792      32086.225      4.0260491      6.8379652    
    488000   605.5743      -9328.6774     -1225.4394      32045.109      4.0161661      6.7950115    
    489000   634.1177      -9318.5545      219.00251      32021.81       4.0206377      6.8043271    
    490000   611.39511     -9321.376       346.49709      31984.727      4.0435377      6.8312222    
    491000   627.14843     -9318.8158      3408.2936      31997.109      4.0569717      6.810524     
    492000   621.68628     -9322.692       5491.778       31950.991      4.0949424      6.8022773    
    493000   635.45011     -9319.9986     -3305.4504      32077.226      4.0715609      6.8988181    
    494000   618.29233     -9323.0632      598.25508      31990.031      4.0424173      6.8280822    
    495000   599.6089      -9318.6924     -3511.868       32121.342      4.076762       6.9014587    
    496000   606.15393     -9323.9395     -3279.015       32073.596      4.0518871      6.8867885    
    497000   626.37588     -9321.1913      681.38066      32040.91       4.0313043      6.8472905    
    498000   634.77217     -9321.3096      256.819        32068.418      4.0630017      6.868995     
    499000   621.98105     -9323.772       795.81645      32027.67       4.0508751      6.8954819    
    500000   624.69619     -9321.4555      994.92215      32004.873      4.0559294      6.8394559    
    501000   624.62992     -9325.8952      1602.5596      32003.497      4.0961822      6.9372516    
    502000   621.08186     -9321.208       1502.8324      32027.337      4.0902214      7.0030116    
    503000   611.60847     -9323.7812      3349.006       31963.541      4.105671       6.9640794    
    504000   616.81379     -9322.1001     -1017.7741      32044.802      4.1617316      6.9486331    
[...]
  20018000   627.1921      -9776.2088      80.845719      30929.2        10.666388      19.41448     
  20019000   626.89903     -9784.899       3010.2005      30839.869      10.486251      19.447567    
  20020000   623.95593     -9780.3986      3142.1939      30795.304      10.667327      19.519167    
  20021000   604.10692     -9780.261       321.34383      30876.942      10.541986      19.468095    
  20022000   634.59982     -9780.3373     -1058.8946      30920.738      10.653324      19.505752    
  20023000   636.17233     -9779.024       5320.003       30816.249      10.734881      19.379762    
  20024000   626.76015     -9781.7355     -3172.5234      30942.696      10.566799      19.427514    
  20025000   596.47048     -9777.7625      1106.9328      30865.434      10.716546      19.485478    
  20026000   627.6946      -9780.4894     -734.09159      30910.851      10.623047      19.520241    
  20027000   628.93662     -9782.3443     -844.00852      30879.98       10.62338       19.506927    
  20028000   639.09379     -9777.0855      4517.4039      30841.39       10.569129      19.426635    
  20029000   620.02063     -9781.7342      733.81339      30860.238      10.589873      19.420387    
  20030000   621.95211     -9777.4724     -652.89752      30906.305      10.556109      19.41452     
  20031000   607.91429     -9780.1022     -342.84094      30912.281      10.623819      19.368772    
  20032000   632.24217     -9779.9277      3008.6808      30854.774      10.631986      19.477149    
  20033000   617.20606     -9775.0488      1080.3591      30883.569      10.504587      19.426495    
  20034000   621.30066     -9781.8935     -2371.7135      30907.479      10.573971      19.468229    
  20035000   643.4444      -9783.5594      748.18102      30894.582      10.678011      19.431173    
  20036000   639.56033     -9779.9003      228.50091      30853.263      10.591673      19.501967    
  20037000   631.93913     -9782.5525      3080.9         30822.703      10.662047      19.436002    
  20038000   619.50094     -9782.5456      1555.9236      30899.485      10.546119      19.511174    
  20039000   624.19062     -9775.9556      3848.2413      30871.838      10.632196      19.43525     
  20040000   623.03649     -9785.4065     -2220.9631      30895.494      10.562134      19.483969    
  20041000   622.30982     -9783.4898     -2174.3221      30933.58       10.640205      19.566155    
  20042000   628.31046     -9781.0374      3207.5899      30890.362      10.582645      19.406632    
  20043000   642.63872     -9781.3598     -2663.2532      30973.999      10.584594      19.427847    
  20044000   626.06856     -9782.2624     -1151.5555      30950.288      10.68602       19.449246    
  20045000   625.92034     -9776.4602     -4042.7048      30984.473      10.595909      19.532257    
  20046000   624.48949     -9784.3513      2338.9722      30862.138      10.600857      19.422263    
  20047000   614.59213     -9779.9723     -1869.8437      30878.764      10.705678      19.582082    
  20048000   614.37156     -9775.8441     -972.46546      30941.38       10.523451      19.430252    
  20049000   596.45851     -9780.2097     -4668.7737      30961.645      10.577903      19.501837    
  20050000   614.61717     -9777.439      -1558.77        30978.075      10.650199      19.43079     
  20051000   614.4903      -9780.7672     -746.46439      30882.383      10.664068      19.419183    
  20052000   648.01724     -9779.7791     -1947.6695      30911.97       10.600054      19.455607    
  20053000   616.57719     -9781.4395     -415.96181      30899.692      10.577154      19.532877    
  20054000   617.58056     -9777.6078      353.65091      30867.936      10.650653      19.414158    
  20055000   624.67537     -9779.0181     -2923.5749      30923.108      10.720286      19.496073    
  20056000   622.92947     -9783.0596      3577.2577      30853.555      10.570367      19.566544    
  20057000   614.96454     -9779.3299     -6447.8385      30990.143      10.641688      19.4671      
  20058000   623.03967     -9777.1695     -231.57995      30907.772      10.607017      19.551279    
  20059000   612.61297     -9780.1353     -144.41699      30911.551      10.61677       19.519684    
  20060000   638.06672     -9776.6751      570.72198      30889.744      10.679533      19.460565    
  20061000   627.63077     -9782.2618      2340.1734      30853.196      10.634019      19.378129    
  20062000   629.46353     -9778.1697     -3253.0081      30945.738      10.686046      19.524069    
  20063000   613.88927     -9777.9035      151.33304      30876.094      10.630205      19.566052    
  20064000   620.64036     -9775.3793     -2449.2459      30940.391      10.55151       19.518207    
  20065000   625.58057     -9783.7301      2892.5675      30821.111      10.604393      19.444989    
  20066000   616.0274      -9778.1513     -117.18547      30911.933      10.56612       19.4842      
  20067000   611.57817     -9783.0201      402.82853      30877.775      10.615576      19.42523     
  20068000   636.43369     -9778.4174     -1125.1065      30916.885      10.658312      19.502528    
  20069000   623.53831     -9778.7561      2735.5603      30866.305      10.659558      19.345295    
  20070000   605.07342     -9777.2186      194.33542      30881.588      10.539892      19.564541    
  20071000   627.25242     -9781.9168     -1491.1696      30891.808      10.716955      19.520606    
  20072000   631.54337     -9782.1974      320.02889      30889.661      10.563893      19.463101    
  20073000   620.98811     -9775.3524     -2355.4578      30950.373      10.570905      19.515904    
  20074000   624.75154     -9773.3431     -199.02844      30873.692      10.652218      19.509825    
  20075000   628.59405     -9784.5738      3313.7218      30810.696      10.536822      19.449133    
  20076000   599.18845     -9779.6536      3443.3849      30862.054      10.680937      19.508936    
  20077000   648.56434     -9783.1082     -1797.5879      30920.769      10.6076        19.493987    
  20078000   608.13177     -9780.7024     -3362.5244      30946.307      10.586421      19.510872    
  20079000   616.32772     -9780.8742     -1110.386       30867.553      10.583314      19.464037    
  20080000   643.02146     -9774.2417      2530.3378      30892.525      10.57455       19.544611    
  20081000   622.73017     -9780.1927      320.04396      30904.561      10.748245      19.58907     
  20082000   629.32853     -9777.5606     -1721.8534      30973.395      10.564174      19.514787    
  20083000   639.44686     -9778.1683     -5246.0551      31000.113      10.754808      19.546983    
  20084000   607.43689     -9778.9471     -3211.4034      30971.606      10.57924       19.624689    
  20085000   611.7645      -9780.1726     -1371.7493      30946.7        10.67652       19.537867    
  20086000   642.04581     -9783.4994      3434.3004      30846.672      10.572891      19.488044    
  20087000   622.80854     -9782.1641     -380.74232      30883.426      10.668439      19.491649    
  20088000   633.4474      -9784.0476     -2713.6165      30906.8        10.65479       19.706936    
  20089000   633.95285     -9780.2676      3905.8522      30842.561      10.607184      19.390691    
  20090000   624.91652     -9775.0801      435.90347      30890.821      10.658268      19.554343    
  20091000   607.07992     -9778.8389     -2073.729       30963.925      10.627813      19.53935     
  20092000   620.87076     -9783.4312      146.26177      30904.879      10.672983      19.514026    
  20093000   622.94489     -9780.9473      992.19197      30880.26       10.588123      19.598466    
  20094000   618.57569     -9782.2836     -5878.8801      30985.117      10.659053      19.472312    
  20095000   615.49873     -9774.2509      452.5395       30911.899      10.551882      19.491501    
  20096000   611.93811     -9772.1496      53.085547      30914.99       10.623127      19.533288    
  20097000   628.11004     -9786.356      -1109.1656      30922.633      10.555918      19.538955    
  20098000   615.41398     -9776.5528     -3624.7167      30980.268      10.718516      19.463468    
  20099000   617.23739     -9782.9173      2551.7024      30846.215      10.583803      19.565074    
  20100000   616.11057     -9782.9337     -704.58054      30909.849      10.584466      19.478785    
  20101000   625.67394     -9778.4614     -2949.2279      30932.231      10.712824      19.512578    
  20102000   622.36356     -9778.2677     -130.69893      30878.877      10.589187      19.571237    
  20103000   622.85452     -9782.5218      73.643061      30893.629      10.693537      19.507572    
  20104000   654.07761     -9780.8063      1728.7968      30886.524      10.556316      19.445066    
  20105000   615.71076     -9780.2793     -3432.2557      30940.33       10.659374      19.476068    
  20106000   630.16488     -9782.4262      448.17706      30897.422      10.69503       19.452109    
  20107000   601.25374     -9776.9431      977.42017      30883.998      10.619972      19.497386    
  20108000   609.74962     -9777.2392     -1723.892       30935.528      10.642976      19.542579    
  20109000   635.26747     -9779.2593      1469.0271      30900.924      10.760087      19.377413    
  20110000   621.60332     -9782.5948     -974.05389      30942.992      10.668748      19.524605    
  20111000   622.80793     -9775.0439      1704.9096      30884.808      10.625264      19.518701    
  20112000   625.05236     -9785.0976      1424.8968      30887.341      10.622665      19.380705    
  20113000   641.66133     -9778.7135     -20.158882      30931.277      10.59444       19.485094    
  20114000   624.77631     -9781.3231     -671.70988      30892.311      10.670977      19.499368    
  20115000   617.01969     -9783.0125     -1096.8669      30903.981      10.657798      19.441454    
  20116000   635.24798     -9777.533      -1415.2976      30951.802      10.660004      19.472274    
  20117000   622.57692     -9780.0417     -1568.2792      30922.736      10.646906      19.489063    
  20118000   620.93208     -9777.5024     -710.66951      30892.854      10.665214      19.449384    
  20119000   618.94652     -9778.7907     -1500.8739      30922.531      10.684515      19.554347    
  20120000   624.21494     -9782.5774      2519.6826      30858.17       10.665269      19.44538     
  20121000   630.70142     -9784.0633     -1055.1022      30936.332      10.577855      19.510895    
  20122000   627.25861     -9776.1411     -534.06236      30925.838      10.560689      19.401573    
  20123000   622.25159     -9782.6309      297.53287      30902.248      10.709968      19.492701    
  20124000   616.55082     -9783.9038     -92.320762      30868.651      10.652639      19.467073    
  20125000   633.25175     -9776.111      -1360.3263      30911.82       10.657943      19.580941    
  20126000   611.09455     -9773.5247      3038.3991      30855.39       10.580215      19.481589    
  20127000   634.00703     -9778.8332      3482.6706      30808.201      10.590428      19.418836    
  20128000   628.00484     -9777.8893      164.28401      30918.186      10.705198      19.432781    
  20129000   620.20537     -9783.431      -955.47329      30930.847      10.590152      19.518793    
  20130000   630.92383     -9778.6446      2898.7076      30824.32       10.65364       19.438117    
  20131000   614.199       -9779.6956     -890.78006      30891.408      10.566156      19.466981    
  20132000   601.53815     -9781.2301      4155.6123      30850.294      10.619617      19.351049    
  20133000   627.31279     -9777.2749     -3971.8922      30952.192      10.665983      19.401603    
  20134000   626.22721     -9782.0405      1057.7204      30876.323      10.597244      19.415307    
  20135000   637.91293     -9778.1181     -5016.5337      30950.979      10.774364      19.379139    
  20136000   620.63179     -9778.7152      861.66111      30864.222      10.612503      19.495016    
  20137000   620.12228     -9777.928       607.88258      30896.261      10.650922      19.405686    
  20138000   641.48138     -9783.2778      399.16431      30883.782      10.60572       19.425055    
  20139000   639.03445     -9778.0946     -2726.6249      30974.446      10.671015      19.604457    
  20140000   623.28924     -9780.6529     -486.54471      30880.029      10.650921      19.450771    
  20141000   629.74998     -9778.9679      1358.8466      30894.999      10.599647      19.384308    
  20142000   610.64701     -9779.8191     -4294.4525      30958.847      10.579486      19.50746     
  20143000   625.28524     -9781.2413      1247.2153      30860.949      10.580234      19.415017    
  20144000   595.73925     -9778.4537     -1606.3508      30952.54       10.590794      19.486046    
  20145000   619.08891     -9779.2032     -1759.9155      30924.314      10.654247      19.354621    
  20146000   632.61955     -9778.2155      1645.3243      30890.036      10.627949      19.492896    
  20147000   616.66183     -9784.4892     -344.02833      30916.246      10.668657      19.391318    
  20148000   620.16997     -9778.5933     -1876.1316      30921.806      10.654115      19.51648     
  20149000   618.39657     -9779.4168      732.19897      30873.14       10.556424      19.537779    
  20150000   631.17033     -9782.5431      1251.3356      30877.304      10.583466      19.393267    
  20151000   627.03643     -9781.0322     -650.95075      30896.867      10.603177      19.602593    
  20152000   615.98636     -9780.3738     -356.76755      30878.204      10.555802      19.343979    
  20153000   619.45139     -9775.5279     -3163.9352      30961.006      10.667602      19.392309    
  20154000   620.35645     -9778.438      -1837.2008      30946.123      10.675503      19.551027    
  20155000   623.7251      -9779.7185     -26.409189      30880.489      10.603237      19.477132    
  20156000   633.43797     -9778.3754     -1264.3352      30895.508      10.550115      19.474669    
  20157000   626.36856     -9783.6073      987.14355      30846.764      10.567645      19.501233    
  20158000   638.0244      -9779.5722      1794.2548      30840.215      10.605455      19.40426     
  20159000   617.91733     -9783.3235     -2627.6705      30939.844      10.681932      19.463799    
  20160000   628.74353     -9778.6189      862.54846      30871.142      10.518546      19.463987    
  20161000   634.83855     -9777.6069      858.20317      30867.079      10.52624       19.391833    
  20162000   617.63739     -9781.1614     -851.03521      30900.631      10.691849      19.460852    
  20163000   633.41036     -9777.9302     -1313.9658      30925.011      10.615257      19.4494      
  20164000   613.2046      -9783.0855      488.45984      30860.354      10.551469      19.446148    
  20165000   611.09717     -9776.169      -1917.4941      30890.838      10.591636      19.569258    
  20166000   596.188       -9784.7472     -2303.1395      30914.302      10.642331      19.537818    
  20167000   624.31508     -9784.0204     -3436.6224      30912.145      10.62236       19.444805    
  20168000   638.49233     -9776.5982     -3101.7899      30928.14       10.626684      19.487125    
  20169000   617.244       -9780.0613      315.72667      30857.613      10.438817      19.366904    
  20170000   610.9792      -9780.1467      1295.8626      30858.655      10.584773      19.472631    
  20171000   612.75043     -9780.5769     -3217.7162      30938.225      10.675061      19.462924    
  20172000   615.54339     -9778.8445      440.8125       30921.834      10.616122      19.501528    
  20173000   606.32603     -9780.9647      2152.1463      30839.149      10.614669      19.528704    
  20174000   625.88956     -9775.0061      2767.5299      30831.57       10.661358      19.603365    
  20175000   621.03096     -9778.8371     -978.8905       30890.736      10.627184      19.508857    
  20176000   603.87931     -9777.8033      543.94332      30830.407      10.738474      19.590347    
  20177000   631.22237     -9775.3265     -606.80197      30918.385      10.590016      19.509649    
  20178000   614.35248     -9780.6409      553.95884      30874.582      10.624476      19.550856    
  20179000   640.29359     -9779.7644     -320.22181      30883.373      10.690595      19.457603    
  20180000   631.75801     -9777.8252     -554.30035      30899.502      10.635238      19.55549     
  20181000   621.61912     -9780.5968     -572.78831      30898.519      10.629146      19.397841    
  20182000   614.43653     -9780.0505     -1728.2954      30899.742      10.582255      19.534593    
  20183000   610.90748     -9778.1209     -2755.6369      30921.509      10.690121      19.464165    
  20184000   621.47873     -9780.454       110.30677      30927.365      10.657693      19.480414    
  20185000   637.75101     -9780.1331     -530.17396      30881.531      10.570299      19.502064    
  20186000   604.07824     -9779.7996      459.42521      30939.014      10.690299      19.49503     
  20187000   608.70027     -9780.6492      3181.2417      30839.64       10.650339      19.401821    
  20188000   611.48619     -9780.9209      5667.5865      30817.114      10.701648      19.494183    
  20189000   644.58039     -9774.1555      4173.7263      30863.875      10.683022      19.539311    
  20190000   630.73359     -9779.0677      856.73962      30895.156      10.605999      19.485296    
  20191000   641.92701     -9780.8668      2306.8924      30884.595      10.595041      19.57025     
  20192000   613.0378      -9780.3011     -3033.4576      30944.175      10.713593      19.57582     
  20193000   607.54719     -9778.6453     -238.7066       30908.625      10.579198      19.505244    
  20194000   622.66596     -9783.6488      838.79786      30872.548      10.593902      19.383697    
  20195000   606.68557     -9780.6776      435.5654       30846.276      10.592283      19.481453    
  20196000   633.64515     -9781.1616      952.97129      30891.067      10.617888      19.404121    
  20197000   615.00899     -9780.9896     -1268.56        30937.328      10.661416      19.496132    
  20198000   626.87762     -9781.1417     -1597.8863      30894.917      10.584107      19.498519    
  20199000   637.48876     -9779.1632      5664.7816      30803.439      10.590845      19.539385    
  20200000   615.97184     -9781.7049     -4558.1065      30993.159      10.609059      19.556677    
Loop time of 239310 on 16 procs for 20000000 steps with 1810 atoms

Performance: 7.221 ns/day, 3.324 hours/ns, 83.574 timesteps/s, 151.268 katom-step/s
100.0% CPU use with 4 MPI tasks x 4 OpenMP threads

MPI task timing breakdown:
Section |  min time  |  avg time  |  max time  |%varavg| %total
---------------------------------------------------------------
Pair    | 1.5688e+05 | 1.9698e+05 | 2.3774e+05 |8612.7 | 82.31
Neigh   | 115.92     | 119.79     | 124.47     |  31.7 |  0.05
Comm    | 910.63     | 41669      | 81758      |18721.8 | 17.41
Output  | 4.1137     | 4.9645     | 7.3918     |  62.9 |  0.00
Modify  | 441.54     | 453.57     | 467.22     |  50.1 |  0.19
Other   |            | 85.69      |            |       |  0.04

Nlocal:          452.5 ave         462 max         447 min
Histogram: 1 1 0 1 0 0 0 0 0 1
Nghost:        1489.25 ave        1527 max        1458 min
Histogram: 2 0 0 0 0 0 0 1 0 1
Neighs:              0 ave           0 max           0 min
Histogram: 4 0 0 0 0 0 0 0 0 0
FullNghs:      22966.5 ave       24179 max       21830 min
Histogram: 1 1 0 0 0 0 0 1 0 1

Total # of neighbors = 91866
Ave neighs/atom = 50.754696
Neighbor list builds = 102012
Dangerous builds = 0

undump          1
unfix           3
Total wall time: 67:11:52
