ITEM: TIMESTEP
46000
ITEM: NUMBER OF ATOMS
20
ITEM: BOX BOUNDS pp pp pp
-2.0000000000000000e+01 2.0000000000000000e+01
-2.0000000000000000e+01 2.0000000000000000e+01
-2.0000000000000000e+01 2.0000000000000000e+01
ITEM: ATOMS id type x y z
15 178 -3.71365 -3.18196 -0.778805
13 177 -1.98728 -3.13863 -0.78341
18 95 -4.34647 -1.28824 -1.34241
4 100 -0.538001 -2.28733 -0.212617
17 180 -4.56287 -2.28676 -1.62678
20 95 -5.65531 -2.59914 -1.445
8 101 -0.00258469 -1.19977 -2.03036
14 181 -1.10414 -4.56345 -1.31331
19 95 -4.22366 -2.44699 -2.62823
3 100 0.263455 -1.45324 -1.02567
2 100 1.34065 -0.784683 -0.544088
7 101 1.97593 -0.240348 -1.19187
16 179 -4.16957 -4.25234 0.0556263
9 101 -0.774982 -3.03021 1.80885
5 100 -0.176108 -2.47169 1.10091
6 100 0.881614 -1.7496 1.65811
1 100 1.68535 -0.944061 0.826446
10 101 1.09862 -1.82167 2.67203
11 120 2.82731 -0.35047 1.30274
12 121 2.71977 0.338735 1.95274
