LAMMPS restart file after 2ns annealing

1810 atoms
2 atom types

0.0 25.994814 xlo xhi
0.0 25.994814 ylo yhi
0.0 46.795331 zlo zhi

Masses

1 28.0855  # Si
2 47.867   # Ti

Atoms # atomic

104 1 3.136370 2.352950 3.098270
850 2 0.893969 1.225050 3.308000
1211 2 12.390300 0.728725 22.286500
631 1 5.749240 1.435550 2.564110
994 2 4.951320 3.716210 1.678340
1233 2 8.123320 1.650790 3.127980
1234 2 10.472600 2.762050 4.245320
130 1 10.544200 4.068840 1.836360
240 1 11.421800 1.223230 2.464630
1570 2 13.555800 2.006540 3.784780
3 1 14.336800 1.122950 1.592570
1330 2 16.904900 1.993750 2.756730
730 1 19.562800 1.948440 3.532450
1593 2 22.086100 2.214840 4.199760
654 1 22.580400 3.602740 1.636650
1594 2 20.274900 2.922030 1.254590
49 1 21.585800 0.872556 1.906490
265 1 24.329200 1.535770 2.865330
66 1 26.139500 3.678860 2.754640
1714 2 1.219850 6.086230 2.634510
636 1 3.437160 5.230400 2.910230
199 1 6.094780 5.057590 3.534150
1018 2 7.171250 7.211760 2.844280
347 1 9.665600 6.914050 2.380750
1017 2 8.497680 4.722550 3.115310
404 1 13.524500 4.289790 2.390210
1257 2 11.549100 5.694970 3.665600
512 1 13.432100 7.041350 2.738460
319 1 16.216400 4.596890 2.677050
632 1 16.021700 7.390790 2.652490
1473 2 18.717700 4.459440 3.186930
97 1 19.887400 6.970240 2.942640
334 1 21.033300 4.618140 3.564240
1617 2 22.236300 6.213410 1.980990
655 1 23.784100 4.192910 4.037020
101 1 24.679300 6.610200 2.696860
614 1 1.015690 8.528740 3.080130
921 2 2.999250 10.256900 2.246520
895 2 3.816800 7.682530 2.647980
531 1 5.648700 9.372270 2.860050
1013 2 8.614510 9.331510 2.302940
613 1 10.117600 10.075600 4.241880
1135 2 11.726500 8.778960 2.974890
384 1 25.854000 13.551000 15.010000
1378 2 14.660600 8.998200 3.896680
157 1 16.598500 10.470600 3.016390
1497 2 18.099800 8.615920 3.454030
679 1 19.733100 10.199900 1.856840
579 1 22.554900 6.896730 4.290490
1738 2 20.983800 9.167460 3.830340
201 1 21.960200 8.679390 1.545120
1736 2 23.993400 9.002370 2.946890
461 1 25.556000 10.215900 4.544200
475 1 2.009590 11.791100 3.981620
922 2 2.390160 13.362800 1.918340
516 1 4.626640 12.236900 2.682260
61 1 8.354360 11.783300 2.005620
333 1 13.285900 13.636400 1.965320
1161 2 10.899900 12.401900 2.732020
503 1 13.280400 10.876100 2.800010
1281 2 15.550500 12.812600 2.843650
1521 2 18.467700 12.177300 2.762350
1735 2 22.039100 11.127400 1.336230
26 1 20.723700 13.196500 2.326160
35 1 25.745000 13.423200 2.125430
778 2 26.170800 10.816400 2.206920
675 1 23.860000 11.478300 2.847990
152 1 2.773600 1.275860 5.348270
18 1 3.356320 3.081280 7.172480
754 2 2.092240 3.858800 5.088390
873 2 5.074760 2.667600 4.907920
247 1 6.152190 3.609370 7.302840
54 1 7.584050 3.354350 5.020570
158 1 8.922810 1.103990 5.879350
521 1 10.974200 2.756740 6.591700
263 1 2.352120 13.469200 16.031300
15 1 12.803500 4.052760 5.163760
1450 2 13.841400 2.406820 7.015740
495 1 15.515000 3.059150 4.976280
203 1 16.387700 2.268610 7.274290
348 1 18.650900 1.348530 7.681570
68 1 20.385200 1.992150 6.115300
538 1 22.589400 3.248600 6.578400
83 1 25.742900 2.601440 5.221770
90 1 24.762900 1.460590 7.272060
657 1 2.179640 5.521420 7.046170
777 2 2.646810 6.834940 5.022930
183 1 4.451680 5.050320 5.666010
1137 2 7.134930 5.716260 6.031310
620 1 8.674520 4.274870 7.700440
7 1 9.839840 4.952880 5.381710
103 1 8.987650 6.836970 7.344320
1354 2 14.685500 5.622010 4.564740
315 1 13.890600 5.057450 7.552580
683 1 17.096500 5.119080 5.076580
726 1 17.954700 6.097410 7.240980
330 1 20.452300 6.873020 7.643540
593 1 23.032700 6.854620 6.876470
77 1 26.251900 5.455290 4.885470
128 1 25.579800 6.339300 7.310250
60 1 3.400670 9.351320 4.581720
306 1 2.682040 8.264730 7.170560
383 1 0.804992 9.523640 7.950530
452 1 5.366810 7.384480 4.764010
590 1 6.743220 8.064400 7.093490
438 1 4.789590 9.830110 7.618500
678 1 7.698450 9.161980 4.594680
1041 2 9.032920 9.575220 6.791970
1258 2 9.800110 7.567060 4.934630
96 1 12.634300 7.595780 5.096120
230 1 11.164000 8.526860 7.243360
1377 2 12.381700 10.319200 5.354020
382 1 14.681500 9.148070 6.315750
551 1 16.349100 7.525470 5.152780
176 1 17.004100 8.443660 7.509580
1498 2 16.988600 10.063300 5.625050
720 1 19.216200 8.200510 5.684620
102 1 19.146600 10.518600 7.312190
140 1 23.219000 9.121210 5.464300
1737 2 25.194800 7.668570 5.172670
697 1 24.609300 8.544350 7.681200
237 1 3.546070 11.566100 6.006110
618 1 0.889944 11.685400 6.554590
112 1 6.875490 10.580900 6.499030
343 1 5.894590 12.450200 4.945230
148 1 25.453400 11.221100 22.042600
1016 2 8.385470 11.872600 4.642950
59 1 8.829020 11.934300 7.228320
486 1 10.812300 12.509000 5.453630
1401 2 13.020200 13.242700 4.640170
671 1 13.357600 12.051500 6.934840
436 1 11.178700 11.096600 7.622920
41 1 14.867100 11.425400 4.901380
354 1 19.253400 10.750500 4.692920
704 1 17.184800 12.641400 4.930650
98 1 17.411600 12.197800 7.421310
714 1 23.056800 12.693500 5.020310
244 1 21.481300 10.932100 5.907940
552 1 24.866100 13.157300 6.442840
304 1 2.114030 2.093690 9.229080
271 1 6.113660 2.094590 9.333440
463 1 5.149810 3.595760 10.765100
275 1 8.253860 1.888730 10.363200
2 1 9.916400 3.681100 9.845970
351 1 13.111200 1.979700 9.642000
676 1 12.070800 3.635020 8.607010
254 1 14.887900 0.619092 8.412380
626 1 19.336700 1.727980 9.849550
308 1 17.953200 3.893570 10.254500
121 1 22.342800 1.045370 7.787490
554 1 21.625600 1.426110 10.031100
724 1 25.868000 2.395210 9.159640
465 1 1.705020 5.474420 10.634600
195 1 3.353110 6.526470 8.860030
527 1 5.643830 6.044910 8.225770
408 1 6.375510 5.671420 10.695000
468 1 8.707580 6.006980 9.940300
1 1 14.371900 6.341090 9.714450
716 1 16.320600 4.409900 8.500000
564 1 18.637600 6.071250 10.828400
578 1 22.080200 5.026670 8.226620
526 1 23.424500 4.901100 10.374300
431 1 25.615400 4.763880 9.325880
480 1 6.539460 9.238760 10.950100
155 1 8.073350 8.518780 9.243700
350 1 10.175600 7.936290 10.767500
511 1 12.383500 8.147840 9.453820
363 1 13.045300 9.951460 10.917000
580 1 16.404200 7.245310 10.790800
375 1 16.830400 9.254550 9.758990
595 1 19.274700 9.988510 9.718950
439 1 20.038100 7.731620 9.727660
449 1 23.305000 9.229280 9.603790
252 1 21.913600 7.954410 10.980700
510 1 25.004100 10.039500 10.997300
396 1 1.511810 12.906800 9.866600
722 1 0.952216 10.671200 9.974080
38 1 4.840740 10.676500 9.989910
607 1 5.571240 12.859400 9.603130
218 1 8.034950 12.570100 9.433090
667 1 11.307100 11.508400 10.128300
637 1 15.029900 10.872400 10.293900
368 1 15.244200 12.361300 8.620140
440 1 21.527400 10.765000 8.612350
31 1 22.391800 12.591700 9.773620
22 1 2.716140 3.377430 11.191000
301 1 3.156470 2.597550 13.492900
51 1 5.076660 3.558890 14.552500
596 1 7.791550 2.130770 12.651000
27 1 9.762770 2.654240 13.877500
5 1 11.516000 1.058860 12.936400
395 1 13.609600 2.038480 13.712500
8 1 14.145100 3.184080 11.664700
359 1 15.609600 1.295350 12.551800
528 1 16.436900 3.609430 12.191000
572 1 22.902300 2.822230 11.541600
410 1 22.557200 3.106440 14.028700
257 1 24.940400 1.629140 11.346600
535 1 2.488140 6.890630 13.803300
723 1 26.556200 5.070940 13.964500
235 1 6.453940 4.042390 12.656800
497 1 8.606440 6.753780 14.285200
197 1 10.133900 4.948140 13.700800
514 1 10.661700 5.447340 11.361400
467 1 13.170400 5.412820 11.582700
259 1 13.620200 7.108710 13.428000
582 1 16.969500 5.166850 13.970500
95 1 19.364300 5.836760 13.331200
376 1 21.990100 5.802830 14.061000
416 1 23.199300 6.517520 12.149700
702 1 25.481400 5.713870 11.790200
249 1 2.883500 9.829740 11.203300
446 1 3.068090 7.317680 11.525500
108 1 6.029790 7.073440 14.501700
506 1 5.497260 7.386870 11.953200
441 1 9.481800 8.587490 13.050500
212 1 7.825100 10.246500 12.581700
113 1 12.986200 9.493550 13.305800
425 1 11.061400 9.942400 14.437000
184 1 16.063500 7.318460 13.035500
327 1 17.369500 9.714620 13.385800
358 1 21.177600 9.331640 13.098500
660 1 25.136500 8.179890 12.559200
669 1 24.825900 9.746750 14.529500
71 1 2.615740 11.143000 13.271500
188 1 2.542890 13.276700 11.919300
161 1 9.159380 11.664800 11.236600
9 1 9.277470 13.364900 12.749500
213 1 12.564300 13.402900 11.378100
288 1 12.753600 13.155800 13.886200
163 1 10.673100 12.324500 14.387900
42 1 15.824400 11.654200 12.315700
519 1 14.332700 11.474400 14.115700
270 1 19.289600 10.419100 12.226400
298 1 19.834200 12.718400 12.710100
444 1 22.776400 11.003900 13.551000
556 1 23.539000 12.017300 11.743200
120 1 1.806570 3.181450 15.707200
1692 2 2.818770 1.916710 17.614700
374 1 0.555103 1.161760 15.949500
651 1 5.218620 1.955540 16.431700
540 1 10.035100 2.445780 16.317900
711 1 7.662380 2.016820 17.427000
622 1 13.790000 3.631720 15.413900
370 1 12.132700 1.583580 17.731800
260 1 16.459700 1.584020 16.424300
1429 2 14.380700 3.205830 17.788700
561 1 18.994500 0.972964 17.197300
11 1 20.061200 3.720940 17.384000
321 1 23.013400 1.036540 15.384200
126 1 20.347800 3.744240 14.726900
418 1 24.591300 1.416490 17.092900
570 1 24.582400 3.797940 17.203600
299 1 3.464050 6.109120 17.326800
875 2 0.534237 5.397050 16.404200
508 1 4.147390 5.802410 15.047900
448 1 11.993000 4.025570 17.204200
310 1 12.298000 5.743990 15.068100
242 1 11.699600 6.774850 17.429300
509 1 16.275700 4.038090 16.006300
652 1 20.221000 6.205700 17.587600
731 2 22.297300 4.860320 16.381000
44 1 24.408200 4.596240 14.950900
122 1 24.287400 6.369400 16.962000
381 1 2.417590 9.253820 15.097100
546 1 1.519120 7.885910 17.184000
379 1 3.527120 10.025500 17.340900
364 1 5.789880 8.997380 16.175200
182 1 9.365040 7.712360 16.549100
19 1 8.006240 9.424170 17.466900
118 1 11.680500 9.093210 16.574800
695 1 13.920900 10.035300 17.408700
179 1 16.774300 9.902820 16.205500
427 1 17.962100 7.641200 14.620200
1476 2 18.066000 7.721760 17.115000
493 1 20.215800 8.920590 15.380000
484 1 21.963500 7.342010 16.281000
1595 2 20.708800 8.871880 17.906600
202 1 26.370700 7.581990 14.940300
507 1 6.444510 10.886700 14.679100
471 1 4.498120 12.126200 14.638500
718 1 4.451340 12.651400 17.308700
332 1 7.718290 12.013800 16.669700
428 1 9.869630 13.078500 16.629300
284 1 15.283500 11.954000 16.310300
645 1 17.797200 12.458600 16.596200
659 1 21.395500 12.686900 14.571000
132 1 20.422900 11.314200 16.533400
548 1 26.219200 0.675597 13.458600
156 1 24.864800 10.533400 16.850200
53 1 0.744491 11.264000 14.984500
756 2 26.343700 12.532000 17.345700
581 1 23.858900 12.530900 17.700400
601 1 3.296800 3.153030 20.043300
435 1 1.065060 3.605210 18.470400
1668 2 0.627307 1.528640 20.117900
147 1 4.674780 3.901390 18.080600
971 2 5.685010 1.837720 19.269000
380 1 7.529560 2.610650 20.857800
192 1 9.855510 3.215090 19.041300
515 1 12.192200 2.611370 20.521400
149 1 16.112900 1.447960 19.134400
143 1 19.557000 2.268320 19.505700
1332 2 17.580600 3.394890 18.163500
1475 2 17.566600 2.051220 21.153300
1571 2 22.022400 1.818580 20.060500
280 1 24.538100 2.797290 21.308700
586 1 1.343480 6.130380 18.956200
732 2 1.134100 4.236300 20.941700
877 2 3.778190 6.114180 19.926100
972 2 5.653450 4.250100 20.543300
445 1 6.639720 6.518340 19.981000
692 1 7.253360 4.329320 18.636500
180 1 9.511500 6.096880 18.412800
1115 2 8.618910 4.935420 20.602600
228 1 10.158000 6.933110 20.871500
1235 2 11.544900 5.011270 19.664900
326 1 16.229900 5.712020 17.792600
417 1 15.703400 3.912220 19.922200
433 1 13.766700 5.664350 18.668500
1452 2 15.785600 6.539360 20.318000
76 1 18.254800 6.440940 19.323700
707 1 17.862700 4.572840 21.017700
1596 2 20.164500 4.751590 19.659300
352 1 22.525500 3.966980 18.839800
1716 2 22.570400 6.617440 18.833500
1572 2 22.466500 4.536710 21.328800
1715 2 24.824800 4.832780 19.422400
100 1 24.094700 6.719640 20.985000
755 2 2.691700 8.515790 19.241900
216 1 0.936800 10.028500 18.310900
134 1 4.970840 7.846810 18.339400
1019 2 5.521880 8.939730 20.553800
419 1 7.980070 9.450520 19.940900
995 2 10.304200 8.496730 18.767600
185 1 12.480800 7.484300 20.076200
227 1 10.867100 10.396400 20.513600
13 1 13.841200 10.020900 19.957900
442 1 16.138200 8.577020 18.816500
338 1 18.492500 10.313400 18.087600
1357 2 18.149300 8.820430 20.242400
193 1 23.319600 8.964390 17.850400
608 1 20.263200 10.130600 20.210500
318 1 20.552600 7.470730 20.163900
1718 2 22.649700 9.077900 20.146300
522 1 26.383600 9.087460 20.764800
758 2 25.546700 7.910920 18.685000
780 2 1.548400 11.426200 20.376700
28 1 2.162930 13.456000 18.797300
296 1 3.898110 10.718500 20.071000
371 1 6.757630 13.473000 18.595700
1116 2 5.906310 10.687300 18.153800
899 2 4.549430 13.254900 20.009400
279 1 6.638350 11.753300 20.690900
900 2 8.909590 11.513100 18.989500
485 1 10.279500 13.092600 20.979500
258 1 11.269100 12.382200 18.507300
1379 2 12.712900 12.333900 20.662600
701 1 13.789600 12.553300 18.320700
342 1 15.275500 12.437600 20.940600
1356 2 15.910000 11.130900 18.592800
111 1 17.865600 11.364600 20.437000
1499 2 19.635000 12.697000 18.805100
355 1 17.134100 13.702100 18.928100
550 1 22.009300 11.186000 18.777100
426 1 21.644900 13.283100 20.787800
1739 2 24.666700 10.819800 19.528300
391 1 25.612000 13.197600 19.793600
851 2 3.122180 2.031310 22.157300
577 1 0.712617 1.414840 22.683700
733 2 5.708750 2.871240 22.601800
1091 2 9.881090 1.949450 21.411500
690 1 7.958910 1.998540 23.688900
1092 2 10.035400 3.302860 24.377800
1213 2 12.760300 3.511860 23.011000
1741 2 24.039900 11.448700 24.232500
627 1 14.694800 1.853470 21.814200
142 1 2.456270 13.496000 7.505280
560 1 16.867500 2.224840 23.677300
1451 2 19.362300 1.829870 24.019000
663 1 20.380400 3.007850 21.957800
1574 2 22.353800 1.618060 22.711500
1577 2 24.972000 2.280180 24.056100
1717 2 26.837700 6.880770 21.315500
1693 2 1.347490 3.787500 23.563600
236 1 3.537830 4.516050 22.286300
734 2 2.253250 6.254590 23.487100
854 2 5.070130 6.728930 22.332000
117 1 7.127120 5.148380 22.525900
876 2 9.475670 6.144110 23.541200
479 1 10.635300 4.363440 22.047900
1355 2 11.958300 6.883680 22.684800
709 1 13.627400 5.312940 21.278700
1333 2 15.741600 4.034890 22.483500
1334 2 14.257200 5.952360 23.930500
725 1 16.565100 6.522760 23.105700
1454 2 18.431200 4.523280 23.472900
1359 2 18.692800 6.942900 21.777500
1477 2 21.942400 4.027750 23.963000
559 1 20.744400 5.875950 22.897000
1600 2 23.275300 6.656150 23.494300
1694 2 24.986000 4.961110 22.735100
727 1 3.087780 8.205780 21.826200
757 2 1.186290 9.386070 23.153600
629 1 6.105710 9.327550 23.157200
878 2 4.148410 8.222910 24.547600
852 2 7.909060 7.676110 21.893000
208 1 10.273100 8.728890 23.105800
1763 2 24.005500 13.301300 21.758600
1236 2 12.717200 9.668780 22.195400
1358 2 15.915700 9.960090 21.383600
1237 2 15.850200 8.794220 23.956400
565 1 14.491800 7.804180 22.056300
1094 2 18.867200 7.406930 24.409800
81 1 18.344200 9.473020 22.848600
1623 2 20.723400 10.130700 24.422300
1479 2 21.042000 8.586690 22.347300
137 1 22.939300 9.061410 24.343100
339 1 25.851800 7.186550 23.800100
1480 2 24.354500 8.910540 22.359700
248 1 3.442930 13.342000 22.825800
781 2 1.420750 12.221400 23.692000
1021 2 3.775650 10.665700 22.538400
902 2 6.184770 12.367700 23.096400
1020 2 9.379660 13.312400 23.580700
1139 2 8.802260 10.868900 22.116600
1042 2 6.815600 13.681400 2.848230
403 1 11.630500 11.801100 23.116500
1381 2 17.097800 12.013800 22.915800
1259 2 14.138200 12.597400 23.288400
1619 2 19.763400 11.745700 22.029500
1500 2 21.537900 13.302900 23.486100
266 1 22.329300 10.871900 22.313300
462 1 4.961890 13.509200 7.170610
241 1 13.085700 8.177560 24.751900
999 2 6.685230 6.893090 24.488800
198 1 0.774411 3.112030 25.967600
1695 2 2.110800 0.888255 24.866700
834 2 2.703760 2.370400 27.517000
735 2 3.546300 3.360400 24.569200
855 2 5.727810 1.185680 24.969900
853 2 7.960820 2.980990 26.184700
369 1 10.514300 2.440380 26.847700
964 2 6.860180 0.701896 41.603500
1095 2 12.701900 3.480750 25.950400
329 1 8.017030 11.394200 24.651100
973 2 12.430500 0.550053 27.022700
1215 2 14.912300 2.301350 27.459100
1430 2 17.542800 3.124210 25.933200
489 1 19.070900 0.818130 26.350000
470 1 20.007800 3.785890 25.342100
1457 2 19.896800 2.919280 27.729800
1550 2 21.576000 1.700620 25.869200
1601 2 24.551700 2.601260 27.215500
1143 2 8.074120 13.609100 28.256400
738 2 2.202810 5.080970 26.368200
856 2 4.997250 3.929610 26.920000
736 2 6.514730 4.180690 24.673600
858 2 4.974180 6.669150 26.964700
273 1 4.415550 5.649290 24.754200
1689 2 21.592700 0.584946 46.178900
269 1 8.666720 5.342590 25.623200
978 2 7.180490 5.025910 27.914900
974 2 10.567200 4.816670 27.315200
1214 2 13.323500 6.237710 26.593800
544 1 11.684200 5.438920 24.708900
264 1 15.061000 4.329190 26.045000
1216 2 16.523100 6.206740 25.588200
1336 2 19.058600 5.790420 26.634000
1599 2 22.156700 4.471660 26.718000
687 1 23.453600 6.705250 26.203600
1456 2 21.219600 6.975670 25.106100
1722 2 21.300300 7.197750 27.880700
1455 2 25.446600 5.318870 25.604900
681 1 26.175100 6.825720 27.509600
1719 2 1.677010 7.929190 25.711300
624 1 2.757510 10.461200 25.134900
760 2 3.891770 9.194060 27.281300
325 1 6.176510 8.704240 26.300500
1000 2 8.245880 7.392730 27.284300
225 1 9.785320 9.561060 27.427500
996 2 10.568900 10.427900 24.948700
997 2 10.604400 7.665690 25.659700
1117 2 12.429500 8.943070 27.152900
1078 2 9.545290 0.773559 35.732700
1093 2 15.337600 8.877850 26.654500
1363 2 17.808100 7.749700 27.732600
65 1 19.723000 8.784530 26.525300
1598 2 17.816900 10.227600 25.740700
1621 2 22.155000 9.274280 26.744300
1597 2 25.114200 8.565270 25.741200
215 1 1.430120 13.476400 26.362700
783 2 2.524420 11.299600 27.594600
901 2 3.655260 12.814500 25.402300
1142 2 6.998720 13.270800 25.883500
904 2 5.390700 10.839800 25.177300
905 2 5.312720 12.201900 27.794100
1023 2 7.616720 10.705800 27.137200
1118 2 9.602610 12.215700 26.445100
1144 2 11.690800 13.328000 25.270400
1120 2 12.129800 11.494100 27.636300
1141 2 13.255100 10.763500 25.028700
1238 2 14.358500 13.286000 25.845800
1240 2 15.488800 11.448600 27.540700
255 1 15.768000 11.344600 24.937900
1478 2 17.527400 13.129400 26.125600
1096 2 20.110600 11.165400 27.120300
123 1 22.312400 11.742900 25.990000
1720 2 26.475400 11.164500 25.920900
1743 2 24.472900 13.254400 26.426400
1481 2 24.160100 11.133400 27.759500
859 2 4.387400 3.067990 29.893100
956 2 7.068740 1.176300 30.801700
836 2 5.990690 1.454180 28.134100
975 2 8.654230 2.312320 28.622300
977 2 11.862200 2.487600 28.983900
1194 2 14.195500 1.533410 30.088700
1335 2 15.844800 3.688550 30.341600
1312 2 17.502200 1.448890 28.772600
1575 2 18.789600 3.426270 30.287200
1698 2 22.295000 2.033900 28.517300
1579 2 21.354800 1.961930 31.284700
1696 2 26.707700 1.656670 29.522200
739 2 24.322200 2.840260 30.373200
763 2 2.414990 5.045890 30.753300
954 2 2.585680 6.711320 28.482400
1700 2 26.813400 4.301750 28.474300
737 2 4.944140 5.965580 29.747000
861 2 7.155620 4.187970 30.628100
980 2 9.347970 5.599950 29.683300
1001 2 12.045200 5.691950 30.142200
1097 2 14.033900 4.444070 28.682500
1098 2 16.343400 6.475860 29.922500
1338 2 17.024500 4.531750 27.966900
1458 2 19.257100 5.967180 29.440400
1578 2 21.470200 4.413730 29.631100
1576 2 23.990900 5.230940 28.418100
1723 2 25.762200 6.667430 30.301600
787 2 1.706280 8.004090 31.245800
884 2 3.888930 8.980400 30.085000
880 2 6.167290 8.778020 28.796900
1002 2 8.604960 8.901610 29.768600
976 2 10.950800 7.237280 28.341300
1119 2 11.472700 9.343460 29.626700
414 1 13.803600 10.102000 28.898500
1123 2 13.856300 7.389090 29.159300
1239 2 16.238100 9.155720 29.464700
1503 2 19.751500 8.925110 29.174300
1702 2 21.873500 7.216070 30.425600
1603 2 22.333600 9.923120 29.388300
1721 2 1.019460 9.180700 28.384400
759 2 24.148700 8.074300 28.289500
1602 2 25.186300 9.990010 30.263200
903 2 1.824380 10.904000 30.836200
882 2 4.031880 11.988600 30.331300
1027 2 7.027680 11.335500 29.680800
1122 2 9.701340 11.428000 29.201400
1147 2 8.451100 13.178600 31.075300
1086 2 7.194010 0.571844 44.741200
1145 2 12.465000 11.900700 30.459100
1383 2 15.346700 11.727200 30.403600
1360 2 17.795900 11.014800 28.520600
1389 2 17.872500 12.606100 31.046800
1385 2 19.066300 13.831400 28.756600
1484 2 20.278200 11.537600 30.267000
1624 2 21.998000 12.995700 28.338000
1604 2 23.220600 11.797500 30.804900
762 2 26.479700 12.314800 28.860000
838 2 2.532240 2.556480 31.886900
742 2 1.791850 1.759110 34.631500
857 2 4.830790 1.333050 32.364200
982 2 6.910470 2.752830 32.872000
741 2 4.382180 2.743860 34.583300
979 2 9.371630 1.247250 32.962100
860 2 10.008300 3.260020 31.170800
1196 2 11.956000 1.184840 31.851200
1318 2 11.434900 2.766440 33.946200
1218 2 13.384000 3.594540 31.637100
1314 2 14.214400 1.614850 33.232100
1341 2 16.026700 3.726290 33.317800
1434 2 16.842800 1.547830 31.968400
1459 2 19.037500 2.823850 33.375000
1461 2 21.618400 1.355130 34.123100
1703 2 23.615300 3.122140 33.133300
743 2 26.080700 1.745110 32.519300
765 2 2.344890 4.863670 33.612200
740 2 4.874430 4.515350 32.249600
881 2 6.999270 6.897370 31.138000
981 2 8.679210 5.575370 32.841800
1099 2 11.092800 5.189570 32.647200
1219 2 13.604200 4.889070 34.075600
1102 2 14.472700 6.140000 31.722500
1220 2 16.279900 6.090910 34.225200
1217 2 17.638100 5.237570 31.940400
1487 2 19.107100 6.031190 34.112800
1337 2 20.888600 4.753120 32.248100
1701 2 23.488100 5.329410 31.428700
1725 2 26.070100 4.712110 31.923900
766 2 2.441340 8.296390 34.119800
761 2 3.766130 10.261100 32.655800
879 2 4.276690 7.194710 32.402100
1004 2 6.203990 9.466300 31.655800
1104 2 6.764320 7.790730 33.895400
1247 2 9.641990 7.860290 34.064600
1121 2 8.821400 10.389300 32.095100
883 2 10.180300 7.601540 31.413900
1100 2 12.522400 7.312560 33.232200
1003 2 11.427600 9.892170 32.966600
1242 2 14.049600 9.291820 31.302400
1243 2 13.991000 9.452960 34.045700
1361 2 16.676600 7.805050 32.139900
1482 2 18.248900 9.904160 31.327700
1483 2 19.481400 7.245040 31.583000
1241 2 18.765900 8.848440 33.977600
1580 2 21.724800 7.133670 33.603900
1364 2 21.122500 9.667420 32.221300
764 2 26.240600 7.190180 33.287400
1724 2 26.416700 10.143700 33.408100
1727 2 23.889200 8.170210 32.044200
1607 2 23.931700 8.502700 34.776600
1748 2 2.233170 12.513000 33.045900
1006 2 6.513840 10.675700 34.164300
907 2 5.943510 12.201700 31.960700
886 2 4.846800 13.170000 34.366700
1270 2 8.012610 12.875600 33.842600
1126 2 10.750800 12.652000 32.786700
1148 2 13.834400 12.024900 33.091600
1244 2 16.203800 10.288600 32.921100
1366 2 18.854700 11.551900 33.451700
1365 2 21.346300 12.394100 32.937800
1606 2 23.769800 10.777600 33.321200
1629 2 25.774200 12.531300 31.896300
1726 2 25.865200 12.751900 34.673700
866 2 3.736110 1.532790 37.111100
864 2 7.058230 2.151150 35.794500
983 2 8.951530 3.737940 34.672400
1322 2 14.889900 0.878389 37.773700
1103 2 10.760500 3.044050 36.650100
1339 2 13.458300 2.322630 35.714800
1438 2 16.371200 1.868780 35.039000
1761 2 24.203700 12.536000 47.159900
1442 2 19.125200 1.690740 35.974400
1466 2 17.249600 2.333090 37.857800
1558 2 21.762200 2.196040 36.773600
1705 2 26.146300 3.829250 34.753700
1585 2 0.887294 1.693940 37.282500
1582 2 24.747500 1.250250 35.224100
1704 2 23.916600 3.856250 36.367100
744 2 2.608390 3.882160 36.319600
767 2 1.314180 6.307560 35.801400
862 2 4.066860 6.270180 35.228400
986 2 6.378990 4.691200 34.669100
887 2 5.064320 3.886180 37.254000
889 2 6.136510 6.692940 36.915300
985 2 8.111750 3.983740 37.552800
1227 2 8.475230 6.233800 35.863600
984 2 11.180200 5.720670 35.327000
1221 2 12.851600 4.904130 37.009300
1224 2 15.443000 4.489560 36.518500
1367 2 15.415400 6.696680 38.534300
1340 2 17.908000 4.169450 35.763300
1342 2 17.732300 6.950320 36.522100
1463 2 20.010000 5.086520 37.157400
1460 2 21.507600 4.329680 34.780100
1586 2 22.497900 6.169650 36.589100
1462 2 24.325700 5.685010 34.415400
745 2 26.047800 4.319610 37.598800
1728 2 2.694760 8.778550 36.995700
885 2 4.647070 9.011300 35.203200
1005 2 7.492370 9.072480 36.200600
1127 2 9.824670 8.724450 37.353000
1225 2 12.527700 7.376440 37.810700
1246 2 11.747400 8.961200 35.538700
1222 2 14.211400 7.199890 35.719600
1248 2 14.336700 9.671550 36.939600
1245 2 16.391500 8.711680 35.194900
1369 2 20.323600 8.069960 36.209600
1611 2 22.762500 9.163080 37.394500
1344 2 21.494700 10.308400 34.986900
1605 2 26.303900 8.953750 36.006900
1609 2 24.908100 7.434340 37.207000
1749 2 2.855480 11.055200 35.456900
1608 2 0.885416 11.780600 37.091000
1031 2 5.422710 11.280400 36.561300
1125 2 9.311900 10.649300 34.921800
1034 2 7.927570 12.455700 36.719500
1008 2 10.271300 11.747800 37.413200
918 2 4.954190 13.628800 47.336500
1151 2 12.213000 11.641600 35.400200
1124 2 15.686100 11.313900 35.152600
1273 2 13.961600 12.567900 37.528200
1368 2 18.494300 10.505200 36.246600
1272 2 17.731100 13.180200 35.514900
1511 2 20.390800 12.766100 35.767900
1488 2 23.033300 13.022200 35.138900
1490 2 22.154600 11.961700 37.791500
1489 2 24.529100 10.753300 35.964400
93 1 26.150600 12.760300 44.919300
844 2 3.144340 1.025840 39.955400
746 2 3.149280 3.508720 39.293400
1708 2 26.563100 2.278120 40.079000
865 2 6.146310 1.786250 38.749300
1107 2 8.970790 1.249610 38.216900
987 2 8.253900 2.921620 40.195300
1202 2 10.929600 1.961830 40.789400
1343 2 12.238300 2.878030 38.762300
1229 2 13.538100 1.175590 40.175800
1345 2 15.111900 3.539450 39.350000
1399 2 15.121400 10.432500 47.743000
1468 2 17.956500 3.321640 40.717300
1465 2 19.762700 2.650950 38.757900
1562 2 22.162100 1.073270 39.454400
1583 2 24.438900 1.610250 38.226000
1707 2 24.111900 3.431570 40.570200
768 2 3.514950 6.148790 37.918900
1729 2 0.939596 6.973970 38.459300
1011 2 3.748320 5.689230 41.041100
989 2 5.926630 4.932160 39.426500
1007 2 7.971910 7.126630 38.782500
1105 2 10.318000 5.451000 38.404800
1106 2 10.770200 4.672380 40.943700
1251 2 13.144400 5.544130 39.814600
1348 2 15.647200 5.536970 41.309500
1346 2 17.362300 5.050750 38.497800
1491 2 19.761900 5.157820 40.214500
1464 2 22.021500 4.178190 38.780100
1584 2 21.364700 7.299670 39.057200
748 2 26.933100 4.851240 40.282300
1706 2 24.207700 5.614290 39.048500
769 2 3.064900 8.165910 39.875900
1730 2 26.754300 9.617240 38.780300
888 2 5.414510 8.887310 38.176700
892 2 5.702450 7.559810 40.894100
890 2 4.640130 10.166100 40.669000
1010 2 7.819030 10.121700 38.701300
1226 2 10.726000 7.488080 40.072100
1129 2 12.132500 10.067500 38.233000
1249 2 13.747700 8.546030 39.854700
1252 2 16.213700 8.324370 40.808700
1393 2 16.850300 9.165940 37.993500
1370 2 18.600400 7.608580 39.084100
1635 2 20.082900 9.973130 38.279000
1492 2 17.586000 10.693400 39.905000
1372 2 20.000500 9.360800 40.895700
1612 2 22.546000 10.344000 40.213700
1731 2 24.197900 8.086160 39.939500
770 2 1.959580 10.765000 41.058000
791 2 3.473390 11.076000 38.460400
793 2 3.321260 13.309800 40.107200
1751 2 26.480100 12.510100 39.752200
912 2 5.923260 12.324200 39.245300
1128 2 10.033700 10.618800 40.147100
1057 2 8.638470 12.962600 39.634200
1033 2 12.094200 12.693000 39.316200
1396 2 16.793100 13.517800 40.434700
1394 2 16.408500 12.004300 37.721500
1395 2 14.666800 11.068400 39.763500
1515 2 19.001900 12.880400 38.428900
1755 2 20.721400 12.206700 40.525500
795 2 23.491500 13.350000 39.880400
1610 2 24.492700 11.086800 38.557600
1277 2 17.788000 11.689300 44.696800
1709 2 2.669520 3.351290 42.234800
628 1 16.983400 12.634900 47.318700
868 2 5.346930 2.843680 41.057600
991 2 4.997480 2.539720 43.863300
1616 2 19.712300 11.863600 46.635400
992 2 7.590160 2.938030 42.960000
1206 2 9.620580 0.754644 43.508400
988 2 10.540000 3.138500 43.346900
1228 2 13.212600 3.325080 41.919500
1352 2 13.481900 2.495760 44.557000
1349 2 15.895400 2.546220 42.055100
291 1 16.335600 2.488450 44.436500
1469 2 18.660800 2.553170 43.129300
1564 2 21.158300 2.880820 41.658500
1711 2 23.094300 1.674030 44.142400
490 1 20.837400 2.887420 44.490300
1589 2 25.654500 3.081350 42.908800
1138 2 12.658700 11.821600 47.205000
750 2 1.391340 5.620750 43.058800
870 2 3.861440 5.289530 44.306400
869 2 5.912550 5.135560 42.504000
1009 2 8.222710 5.607760 41.109100
1109 2 8.361190 5.279130 44.293000
1131 2 9.936490 6.829620 42.674000
1350 2 12.179400 5.232260 43.804900
1474 2 14.764600 4.671000 43.874100
1470 2 17.383700 5.065290 43.347800
1371 2 18.251100 6.817890 41.707100
1587 2 22.087200 6.234000 41.392000
1590 2 20.278300 5.159670 43.187900
1591 2 22.947200 4.209750 43.424100
1615 2 22.919300 6.848190 44.045800
1588 2 24.796800 5.974290 41.940000
891 2 3.349660 8.046380 42.691600
771 2 0.737644 7.725480 41.358100
893 2 6.127650 9.468660 42.979800
913 2 8.440280 8.633290 41.197700
139 1 7.392870 7.110450 42.786100
1012 2 9.964990 10.201300 42.998300
1132 2 12.296000 10.124000 41.187100
1108 2 13.320900 7.067000 42.082400
1253 2 11.799300 8.409160 43.866900
99 1 16.003300 7.398670 43.139700
1376 2 14.678800 9.437380 42.685400
1494 2 17.871600 9.422940 42.715600
1493 2 20.213700 8.049110 43.408600
1613 2 22.696400 9.043980 42.613500
1732 2 25.072300 10.302400 41.445400
772 2 1.113510 10.239500 43.536000
894 2 2.393480 12.674300 42.890300
4 1 3.867010 10.603900 43.119300
915 2 5.427550 12.348100 42.079400
1155 2 7.638640 11.077800 41.410100
1014 2 7.575700 11.789600 44.250900
1159 2 10.530800 13.138300 44.465800
1153 2 10.677000 12.616200 41.731100
1275 2 12.925200 11.784900 43.431700
1397 2 15.878900 11.876300 42.559000
365 1 22.150800 12.011200 45.505200
1614 2 18.665400 11.776500 42.034000
1733 2 20.685000 10.685900 43.762400
1639 2 20.098500 13.406100 44.112200
1734 2 22.594100 12.142600 42.501300
774 2 24.334600 10.902100 44.637000
1757 2 25.521600 12.752900 42.445000
990 2 2.466460 1.528100 44.691000
753 2 2.838200 0.946819 47.499300
272 1 3.808230 3.260210 46.139800
752 2 1.262140 3.778780 45.198900
872 2 5.678290 1.472280 46.878800
634 1 8.670050 2.674410 45.113100
1230 2 9.763810 1.885930 47.337800
619 1 7.484950 3.250430 47.919800
1232 2 12.489900 2.761910 47.382000
24 1 11.325400 1.174760 45.200600
1114 2 10.816800 3.930790 45.962300
1448 2 15.350300 3.240180 46.975500
612 1 16.812500 1.078500 47.181300
472 1 17.985400 3.591240 47.384700
1687 2 18.808000 1.736490 45.659600
1713 2 25.684300 0.939988 44.855300
1810 2 23.828800 1.781220 47.299900
129 1 26.507200 2.230180 46.849300
616 1 24.465600 3.329300 45.355600
529 1 1.174380 5.750270 46.834500
897 2 3.595540 5.885800 46.965900
1015 2 6.425930 3.909510 45.774300